<?xml version="1.0" encoding="UTF-8"?>

<!-- generated on 2025-02-17 22:45:01 by Eclipse SUMO sumo Version 1.20.0
<configuration xmlns:xsi="http://www.w3.org/2001/XMLSchema-instance" xsi:noNamespaceSchemaLocation="http://sumo.dlr.de/xsd/sumoConfiguration.xsd">

    <input>
        <net-file value="./envs/5x5/5x5.net.xml"/>
        <route-files value="./envs/5x5/Demand_20.rou.xml"/>
    </input>

    <output>
        <tripinfo-output value="./online_train/5x5\online_train_SAC_multi_agents/tripinfo/tripinfo_ep56.xml"/>
    </output>

    <time>
        <begin value="0"/>
    </time>

    <processing>
        <time-to-teleport value="-1"/>
        <waiting-time-memory value="1800"/>
    </processing>

    <report>
        <no-step-log value="true"/>
    </report>

    <traci_server>
        <remote-port value="54001"/>
    </traci_server>

</configuration>
-->

<tripinfos xmlns:xsi="http://www.w3.org/2001/XMLSchema-instance" xsi:noNamespaceSchemaLocation="http://sumo.dlr.de/xsd/tripinfo_file.xsd">
    <tripinfo id="OD310_NV.0" depart="4.00" departLane="left4A4_0" departPos="5.10" departSpeed="10.00" departDelay="1.48" arrival="75.00" arrivalLane="A3left3_0" arrivalPos="286.40" arrivalSpeed="13.48" duration="71.00" routeLength="858.56" waitingTime="0.00" waitingCount="0" stopTime="0.00" timeLoss="7.65" rerouteNo="0" devices="tripinfo_OD310_NV.0" vType="NV" speedFactor="1.00" vaporized=""/>
    <tripinfo id="OD310_NV.1" depart="8.00" departLane="left4A4_0" departPos="5.10" departSpeed="10.00" departDelay="3.20" arrival="78.00" arrivalLane="A3left3_0" arrivalPos="286.40" arrivalSpeed="13.04" duration="70.00" routeLength="858.56" waitingTime="0.00" waitingCount="0" stopTime="0.00" timeLoss="7.21" rerouteNo="0" devices="tripinfo_OD310_NV.1" vType="NV" speedFactor="1.00" vaporized=""/>
    <tripinfo id="OD102_NV.0" depart="37.00" departLane="right4E4_0" departPos="5.10" departSpeed="10.00" departDelay="0.87" arrival="83.00" arrivalLane="E4top4_0" arrivalPos="286.40" arrivalSpeed="13.25" duration="46.00" routeLength="576.73" waitingTime="0.00" waitingCount="0" stopTime="0.00" timeLoss="3.96" rerouteNo="0" devices="tripinfo_OD102_NV.0" vType="NV" speedFactor="1.00" vaporized=""/>
    <tripinfo id="OD129_NV.0" depart="19.00" departLane="left1A1_0" departPos="5.10" departSpeed="10.00" departDelay="0.11" arrival="90.00" arrivalLane="A0left0_0" arrivalPos="286.40" arrivalSpeed="13.58" duration="71.00" routeLength="858.56" waitingTime="0.00" waitingCount="0" stopTime="0.00" timeLoss="7.58" rerouteNo="0" devices="tripinfo_OD129_NV.0" vType="NV" speedFactor="1.00" vaporized=""/>
    <tripinfo id="OD284_NV.0" depart="22.00" departLane="top4E4_0" departPos="5.10" departSpeed="10.00" departDelay="1.14" arrival="93.00" arrivalLane="D4top3_0" arrivalPos="286.40" arrivalSpeed="13.63" duration="71.00" routeLength="858.56" waitingTime="0.00" waitingCount="0" stopTime="0.00" timeLoss="7.62" rerouteNo="0" devices="tripinfo_OD284_NV.0" vType="NV" speedFactor="1.00" vaporized=""/>
    <tripinfo id="OD129_RV.0" depart="32.00" departLane="left1A1_0" departPos="5.10" departSpeed="10.00" departDelay="0.10" arrival="102.00" arrivalLane="A0left0_0" arrivalPos="286.40" arrivalSpeed="13.24" duration="70.00" routeLength="858.56" waitingTime="0.00" waitingCount="0" stopTime="0.00" timeLoss="6.56" rerouteNo="0" devices="tripinfo_OD129_RV.0" vType="RV" speedFactor="1.00" vaporized=""/>
    <tripinfo id="OD244_NV.0" depart="9.00" departLane="top0A4_0" departPos="5.10" departSpeed="10.00" departDelay="1.64" arrival="105.00" arrivalLane="A2left2_0" arrivalPos="286.40" arrivalSpeed="13.24" duration="96.00" routeLength="1176.73" waitingTime="0.00" waitingCount="0" stopTime="0.00" timeLoss="10.14" rerouteNo="0" devices="tripinfo_OD244_NV.0" vType="NV" speedFactor="1.00" vaporized=""/>
    <tripinfo id="OD310_NV.2" depart="38.00" departLane="left4A4_0" departPos="5.10" departSpeed="10.00" departDelay="0.76" arrival="109.00" arrivalLane="A3left3_0" arrivalPos="286.40" arrivalSpeed="13.62" duration="71.00" routeLength="858.56" waitingTime="0.00" waitingCount="0" stopTime="0.00" timeLoss="7.66" rerouteNo="0" devices="tripinfo_OD310_NV.2" vType="NV" speedFactor="1.00" vaporized=""/>
    <tripinfo id="OD354_NV.0" depart="10.00" departLane="bottom2C0_0" departPos="5.10" departSpeed="10.00" departDelay="0.22" arrival="110.00" arrivalLane="B0bottom1_2" arrivalPos="286.40" arrivalSpeed="13.30" duration="100.00" routeLength="889.52" waitingTime="24.00" waitingCount="1" stopTime="0.00" timeLoss="34.94" rerouteNo="0" devices="tripinfo_OD354_NV.0" vType="NV" speedFactor="1.00" vaporized=""/>
    <tripinfo id="OD176_NV.0" depart="40.00" departLane="top3D4_0" departPos="5.10" departSpeed="10.00" departDelay="0.16" arrival="111.00" arrivalLane="C4top2_0" arrivalPos="286.40" arrivalSpeed="13.24" duration="71.00" routeLength="858.56" waitingTime="0.00" waitingCount="0" stopTime="0.00" timeLoss="7.48" rerouteNo="0" devices="tripinfo_OD176_NV.0" vType="NV" speedFactor="1.00" vaporized=""/>
    <tripinfo id="OD291_NV.0" depart="3.00" departLane="top1B4_0" departPos="5.10" departSpeed="10.00" departDelay="0.51" arrival="114.00" arrivalLane="A3left3_1" arrivalPos="286.40" arrivalSpeed="12.72" duration="111.00" routeLength="1176.73" waitingTime="15.00" waitingCount="1" stopTime="0.00" timeLoss="25.08" rerouteNo="0" devices="tripinfo_OD291_NV.0" vType="NV" speedFactor="1.00" vaporized=""/>
    <tripinfo id="OD21_RV.0" depart="16.00" departLane="top2C4_0" departPos="5.10" departSpeed="10.00" departDelay="0.63" arrival="118.00" arrivalLane="A4left4_1" arrivalPos="286.40" arrivalSpeed="12.96" duration="102.00" routeLength="1176.73" waitingTime="4.00" waitingCount="1" stopTime="0.00" timeLoss="16.24" rerouteNo="0" devices="tripinfo_OD21_RV.0" vType="RV" speedFactor="1.00" vaporized=""/>
    <tripinfo id="OD169_RV.0" depart="7.00" departLane="left2A2_0" departPos="5.10" departSpeed="10.00" departDelay="0.60" arrival="119.00" arrivalLane="A0bottom0_1" arrivalPos="286.40" arrivalSpeed="12.69" duration="112.00" routeLength="1176.73" waitingTime="14.00" waitingCount="1" stopTime="0.00" timeLoss="26.01" rerouteNo="0" devices="tripinfo_OD169_RV.0" vType="RV" speedFactor="1.00" vaporized=""/>
    <tripinfo id="OD50_NV.0" depart="49.00" departLane="right2E2_0" departPos="5.10" departSpeed="10.00" departDelay="0.93" arrival="119.00" arrivalLane="E3right3_0" arrivalPos="286.40" arrivalSpeed="13.05" duration="70.00" routeLength="858.56" waitingTime="0.00" waitingCount="0" stopTime="0.00" timeLoss="6.63" rerouteNo="0" devices="tripinfo_OD50_NV.0" vType="NV" speedFactor="1.00" vaporized=""/>
    <tripinfo id="OD65_RV.0" depart="49.00" departLane="bottom3D0_0" departPos="5.10" departSpeed="10.00" departDelay="2.05" arrival="120.00" arrivalLane="E0bottom4_0" arrivalPos="286.40" arrivalSpeed="13.34" duration="71.00" routeLength="858.56" waitingTime="0.00" waitingCount="0" stopTime="0.00" timeLoss="7.58" rerouteNo="0" devices="tripinfo_OD65_RV.0" vType="RV" speedFactor="1.00" vaporized=""/>
    <tripinfo id="OD365_NV.0" depart="7.00" departLane="right1E1_0" departPos="5.10" departSpeed="10.00" departDelay="0.05" arrival="121.00" arrivalLane="D0bottom3_1" arrivalPos="286.40" arrivalSpeed="13.71" duration="114.00" routeLength="1192.21" waitingTime="12.00" waitingCount="2" stopTime="0.00" timeLoss="26.74" rerouteNo="0" devices="tripinfo_OD365_NV.0" vType="NV" speedFactor="1.00" vaporized=""/>
    <tripinfo id="OD169_NV.0" depart="17.00" departLane="left2A2_0" departPos="5.10" departSpeed="10.00" departDelay="0.59" arrival="121.00" arrivalLane="A0bottom0_1" arrivalPos="286.40" arrivalSpeed="13.49" duration="104.00" routeLength="1176.73" waitingTime="3.00" waitingCount="1" stopTime="0.00" timeLoss="18.31" rerouteNo="0" devices="tripinfo_OD169_NV.0" vType="NV" speedFactor="1.00" vaporized=""/>
    <tripinfo id="OD320_NV.0" depart="28.00" departLane="left4A4_0" departPos="5.10" departSpeed="10.00" departDelay="1.49" arrival="123.00" arrivalLane="A2left2_0" arrivalPos="286.40" arrivalSpeed="12.76" duration="95.00" routeLength="1158.56" waitingTime="0.00" waitingCount="0" stopTime="0.00" timeLoss="9.41" rerouteNo="0" devices="tripinfo_OD320_NV.0" vType="NV" speedFactor="1.00" vaporized=""/>
    <tripinfo id="OD284_NV.1" depart="54.00" departLane="top4E4_0" departPos="5.10" departSpeed="10.00" departDelay="0.77" arrival="124.00" arrivalLane="D4top3_0" arrivalPos="286.40" arrivalSpeed="13.46" duration="70.00" routeLength="858.56" waitingTime="0.00" waitingCount="0" stopTime="0.00" timeLoss="6.51" rerouteNo="0" devices="tripinfo_OD284_NV.1" vType="NV" speedFactor="1.00" vaporized=""/>
    <tripinfo id="OD65_NV.0" depart="54.00" departLane="bottom3D0_0" departPos="5.10" departSpeed="10.00" departDelay="0.88" arrival="125.00" arrivalLane="E0bottom4_0" arrivalPos="286.40" arrivalSpeed="12.71" duration="71.00" routeLength="858.56" waitingTime="0.00" waitingCount="0" stopTime="0.00" timeLoss="7.19" rerouteNo="0" devices="tripinfo_OD65_NV.0" vType="NV" speedFactor="1.00" vaporized=""/>
    <tripinfo id="OD184_NV.0" depart="25.00" departLane="top3D4_0" departPos="5.10" departSpeed="10.00" departDelay="5.03" arrival="132.00" arrivalLane="B4top1_0" arrivalPos="286.40" arrivalSpeed="13.59" duration="107.00" routeLength="1158.56" waitingTime="6.00" waitingCount="1" stopTime="0.00" timeLoss="21.67" rerouteNo="0" devices="tripinfo_OD184_NV.0" vType="NV" speedFactor="1.00" vaporized=""/>
    <tripinfo id="OD50_NV.1" depart="61.00" departLane="right2E2_0" departPos="5.10" departSpeed="10.00" departDelay="1.59" arrival="133.00" arrivalLane="E3right3_0" arrivalPos="286.40" arrivalSpeed="12.83" duration="72.00" routeLength="858.56" waitingTime="0.00" waitingCount="0" stopTime="0.00" timeLoss="7.66" rerouteNo="0" devices="tripinfo_OD50_NV.1" vType="NV" speedFactor="1.00" vaporized=""/>
    <tripinfo id="OD184_RV.0" depart="29.00" departLane="top3D4_0" departPos="5.10" departSpeed="10.00" departDelay="1.79" arrival="135.00" arrivalLane="B4top1_0" arrivalPos="286.40" arrivalSpeed="13.64" duration="106.00" routeLength="1158.56" waitingTime="3.00" waitingCount="1" stopTime="0.00" timeLoss="20.18" rerouteNo="0" devices="tripinfo_OD184_RV.0" vType="RV" speedFactor="1.00" vaporized=""/>
    <tripinfo id="OD76_NV.0" depart="65.00" departLane="right0E0_0" departPos="5.10" departSpeed="10.00" departDelay="0.41" arrival="135.00" arrivalLane="E1right1_0" arrivalPos="286.40" arrivalSpeed="13.13" duration="70.00" routeLength="858.56" waitingTime="0.00" waitingCount="0" stopTime="0.00" timeLoss="7.01" rerouteNo="0" devices="tripinfo_OD76_NV.0" vType="NV" speedFactor="1.00" vaporized=""/>
    <tripinfo id="OD374_NV.0" depart="12.00" departLane="right1E1_0" departPos="5.10" departSpeed="10.00" departDelay="2.10" arrival="138.00" arrivalLane="E3right3_0" arrivalPos="286.40" arrivalSpeed="12.99" duration="126.00" routeLength="1158.56" waitingTime="27.00" waitingCount="1" stopTime="0.00" timeLoss="41.22" rerouteNo="0" devices="tripinfo_OD374_NV.0" vType="NV" speedFactor="1.00" vaporized=""/>
    <tripinfo id="OD169_NV.1" depart="46.00" departLane="left2A2_0" departPos="5.10" departSpeed="10.00" departDelay="0.47" arrival="139.00" arrivalLane="A0bottom0_1" arrivalPos="286.40" arrivalSpeed="12.43" duration="93.00" routeLength="1176.73" waitingTime="0.00" waitingCount="0" stopTime="0.00" timeLoss="7.48" rerouteNo="0" devices="tripinfo_OD169_NV.1" vType="NV" speedFactor="1.00" vaporized=""/>
    <tripinfo id="OD50_NV.2" depart="71.00" departLane="right2E2_0" departPos="5.10" departSpeed="10.00" departDelay="0.74" arrival="142.00" arrivalLane="E3right3_0" arrivalPos="286.40" arrivalSpeed="12.59" duration="71.00" routeLength="858.56" waitingTime="0.00" waitingCount="0" stopTime="0.00" timeLoss="7.74" rerouteNo="0" devices="tripinfo_OD50_NV.2" vType="NV" speedFactor="1.00" vaporized=""/>
    <tripinfo id="OD257_RV.0" depart="12.00" departLane="left3A3_0" departPos="5.10" departSpeed="10.00" departDelay="1.82" arrival="146.00" arrivalLane="A1left1_0" arrivalPos="286.40" arrivalSpeed="12.59" duration="134.00" routeLength="1158.56" waitingTime="36.00" waitingCount="1" stopTime="0.00" timeLoss="48.73" rerouteNo="0" devices="tripinfo_OD257_RV.0" vType="RV" speedFactor="1.00" vaporized=""/>
    <tripinfo id="OD176_NV.1" depart="76.00" departLane="top3D4_0" departPos="5.10" departSpeed="10.00" departDelay="1.17" arrival="147.00" arrivalLane="C4top2_0" arrivalPos="286.40" arrivalSpeed="13.26" duration="71.00" routeLength="858.56" waitingTime="0.00" waitingCount="0" stopTime="0.00" timeLoss="7.71" rerouteNo="0" devices="tripinfo_OD176_NV.1" vType="NV" speedFactor="1.00" vaporized=""/>
    <tripinfo id="OD244_NV.1" depart="45.00" departLane="top0A4_0" departPos="5.10" departSpeed="10.00" departDelay="0.91" arrival="148.00" arrivalLane="A2left2_0" arrivalPos="286.40" arrivalSpeed="13.20" duration="103.00" routeLength="1176.73" waitingTime="5.00" waitingCount="1" stopTime="0.00" timeLoss="17.08" rerouteNo="0" devices="tripinfo_OD244_NV.1" vType="NV" speedFactor="1.00" vaporized=""/>
    <tripinfo id="OD113_NV.0" depart="35.00" departLane="right4E4_0" departPos="5.10" departSpeed="10.00" departDelay="0.56" arrival="149.00" arrivalLane="D4top3_0" arrivalPos="286.40" arrivalSpeed="13.66" duration="114.00" routeLength="876.73" waitingTime="38.00" waitingCount="1" stopTime="0.00" timeLoss="49.29" rerouteNo="0" devices="tripinfo_OD113_NV.0" vType="NV" speedFactor="1.00" vaporized=""/>
    <tripinfo id="OD257_NV.0" depart="38.00" departLane="left3A3_0" departPos="5.10" departSpeed="10.00" departDelay="0.13" arrival="149.00" arrivalLane="A1left1_0" arrivalPos="286.40" arrivalSpeed="13.27" duration="111.00" routeLength="1158.56" waitingTime="12.00" waitingCount="1" stopTime="0.00" timeLoss="26.38" rerouteNo="0" devices="tripinfo_OD257_NV.0" vType="NV" speedFactor="1.00" vaporized=""/>
    <tripinfo id="OD368_NV.0" depart="78.00" departLane="right1E1_0" departPos="5.10" departSpeed="10.00" departDelay="0.11" arrival="149.00" arrivalLane="E2right2_0" arrivalPos="286.40" arrivalSpeed="13.54" duration="71.00" routeLength="858.56" waitingTime="0.00" waitingCount="0" stopTime="0.00" timeLoss="7.82" rerouteNo="0" devices="tripinfo_OD368_NV.0" vType="NV" speedFactor="1.00" vaporized=""/>
    <tripinfo id="OD45_NV.0" depart="6.00" departLane="right2E2_0" departPos="5.10" departSpeed="10.00" departDelay="0.70" arrival="151.00" arrivalLane="E4top4_1" arrivalPos="286.40" arrivalSpeed="13.01" duration="145.00" routeLength="1176.73" waitingTime="48.00" waitingCount="1" stopTime="0.00" timeLoss="59.54" rerouteNo="0" devices="tripinfo_OD45_NV.0" vType="NV" speedFactor="1.00" vaporized=""/>
    <tripinfo id="OD7_NV.0" depart="77.00" departLane="right3E3_0" departPos="5.10" departSpeed="10.00" departDelay="0.10" arrival="153.00" arrivalLane="E4top4_1" arrivalPos="286.40" arrivalSpeed="13.57" duration="76.00" routeLength="876.73" waitingTime="1.00" waitingCount="1" stopTime="0.00" timeLoss="11.22" rerouteNo="0" devices="tripinfo_OD7_NV.0" vType="NV" speedFactor="1.00" vaporized=""/>
    <tripinfo id="OD310_NV.3" depart="82.00" departLane="left4A4_0" departPos="5.10" departSpeed="10.00" departDelay="0.90" arrival="153.00" arrivalLane="A3left3_0" arrivalPos="286.40" arrivalSpeed="13.55" duration="71.00" routeLength="858.56" waitingTime="0.00" waitingCount="0" stopTime="0.00" timeLoss="7.37" rerouteNo="0" devices="tripinfo_OD310_NV.3" vType="NV" speedFactor="1.00" vaporized=""/>
    <tripinfo id="OD158_NV.0" depart="4.00" departLane="left2A2_0" departPos="5.10" departSpeed="10.00" departDelay="0.74" arrival="154.00" arrivalLane="A3left3_2" arrivalPos="286.40" arrivalSpeed="13.68" duration="150.00" routeLength="889.52" waitingTime="75.00" waitingCount="1" stopTime="0.00" timeLoss="84.41" rerouteNo="0" devices="tripinfo_OD158_NV.0" vType="NV" speedFactor="1.00" vaporized=""/>
    <tripinfo id="OD246_NV.0" depart="2.00" departLane="top0A4_0" departPos="5.10" departSpeed="10.00" departDelay="0.05" arrival="156.00" arrivalLane="D4top3_2" arrivalPos="286.40" arrivalSpeed="13.15" duration="154.00" routeLength="1489.52" waitingTime="30.00" waitingCount="2" stopTime="0.00" timeLoss="45.38" rerouteNo="0" devices="tripinfo_OD246_NV.0" vType="NV" speedFactor="1.00" vaporized=""/>
    <tripinfo id="OD158_NV.1" depart="13.00" departLane="left2A2_0" departPos="5.10" departSpeed="10.00" departDelay="1.11" arrival="156.00" arrivalLane="A3left3_2" arrivalPos="286.40" arrivalSpeed="13.08" duration="143.00" routeLength="889.52" waitingTime="68.00" waitingCount="1" stopTime="0.00" timeLoss="76.91" rerouteNo="0" devices="tripinfo_OD158_NV.1" vType="NV" speedFactor="1.00" vaporized=""/>
    <tripinfo id="OD158_RV.0" depart="82.00" departLane="left2A2_0" departPos="5.10" departSpeed="10.00" departDelay="1.78" arrival="161.00" arrivalLane="A3left3_2" arrivalPos="286.40" arrivalSpeed="13.68" duration="79.00" routeLength="889.52" waitingTime="3.00" waitingCount="1" stopTime="0.00" timeLoss="13.86" rerouteNo="0" devices="tripinfo_OD158_RV.0" vType="RV" speedFactor="1.00" vaporized=""/>
    <tripinfo id="OD14_NV.0" depart="90.00" departLane="right3E3_0" departPos="5.10" departSpeed="10.00" departDelay="0.85" arrival="161.00" arrivalLane="E4right4_0" arrivalPos="286.40" arrivalSpeed="12.57" duration="71.00" routeLength="858.56" waitingTime="0.00" waitingCount="0" stopTime="0.00" timeLoss="7.56" rerouteNo="0" devices="tripinfo_OD14_NV.0" vType="NV" speedFactor="1.00" vaporized=""/>
    <tripinfo id="OD148_RV.0" depart="18.00" departLane="left0A0_0" departPos="5.10" departSpeed="10.00" departDelay="0.00" arrival="164.00" arrivalLane="A0left0_1" arrivalPos="286.40" arrivalSpeed="12.39" duration="146.00" routeLength="1737.70" waitingTime="0.00" waitingCount="0" stopTime="0.00" timeLoss="17.97" rerouteNo="0" devices="tripinfo_OD148_RV.0" vType="RV" speedFactor="1.00" vaporized=""/>
    <tripinfo id="OD369_NV.0" depart="5.00" departLane="right1E1_0" departPos="5.10" departSpeed="10.00" departDelay="2.04" arrival="165.00" arrivalLane="E4top4_1" arrivalPos="286.40" arrivalSpeed="13.25" duration="160.00" routeLength="1476.73" waitingTime="35.00" waitingCount="2" stopTime="0.00" timeLoss="53.03" rerouteNo="0" devices="tripinfo_OD369_NV.0" vType="NV" speedFactor="1.00" vaporized=""/>
    <tripinfo id="OD288_RV.0" depart="59.00" departLane="top1B4_0" departPos="5.10" departSpeed="10.00" departDelay="1.65" arrival="165.00" arrivalLane="A4left4_1" arrivalPos="286.40" arrivalSpeed="13.23" duration="106.00" routeLength="876.73" waitingTime="31.00" waitingCount="1" stopTime="0.00" timeLoss="41.93" rerouteNo="0" devices="tripinfo_OD288_RV.0" vType="RV" speedFactor="1.00" vaporized=""/>
    <tripinfo id="OD52_NV.0" depart="59.00" departLane="right2E2_0" departPos="5.10" departSpeed="10.00" departDelay="0.01" arrival="165.00" arrivalLane="E4right4_0" arrivalPos="286.40" arrivalSpeed="12.65" duration="106.00" routeLength="1158.56" waitingTime="8.00" waitingCount="1" stopTime="0.00" timeLoss="20.79" rerouteNo="0" devices="tripinfo_OD52_NV.0" vType="NV" speedFactor="1.00" vaporized=""/>
    <tripinfo id="OD374_NV.1" depart="60.00" departLane="right1E1_0" departPos="5.10" departSpeed="10.00" departDelay="0.36" arrival="165.00" arrivalLane="E3right3_0" arrivalPos="286.40" arrivalSpeed="13.02" duration="105.00" routeLength="1158.56" waitingTime="7.00" waitingCount="1" stopTime="0.00" timeLoss="20.08" rerouteNo="0" devices="tripinfo_OD374_NV.1" vType="NV" speedFactor="1.00" vaporized=""/>
    <tripinfo id="OD369_NV.1" depart="26.00" departLane="right1E1_0" departPos="5.10" departSpeed="10.00" departDelay="0.50" arrival="167.00" arrivalLane="E4top4_1" arrivalPos="286.40" arrivalSpeed="13.29" duration="141.00" routeLength="1476.73" waitingTime="16.00" waitingCount="1" stopTime="0.00" timeLoss="34.05" rerouteNo="0" devices="tripinfo_OD369_NV.1" vType="NV" speedFactor="1.00" vaporized=""/>
    <tripinfo id="OD21_RV.1" depart="36.00" departLane="top2C4_0" departPos="5.10" departSpeed="10.00" departDelay="0.64" arrival="167.00" arrivalLane="A4left4_1" arrivalPos="286.40" arrivalSpeed="13.25" duration="131.00" routeLength="1176.73" waitingTime="27.00" waitingCount="2" stopTime="0.00" timeLoss="44.68" rerouteNo="0" devices="tripinfo_OD21_RV.1" vType="RV" speedFactor="1.00" vaporized=""/>
    <tripinfo id="OD68_RV.0" depart="20.00" departLane="bottom3D0_0" departPos="5.10" departSpeed="10.00" departDelay="0.38" arrival="168.00" arrivalLane="B0bottom1_2" arrivalPos="286.40" arrivalSpeed="13.04" duration="148.00" routeLength="1189.52" waitingTime="45.00" waitingCount="2" stopTime="0.00" timeLoss="60.65" rerouteNo="0" devices="tripinfo_OD68_RV.0" vType="RV" speedFactor="1.00" vaporized=""/>
    <tripinfo id="OD174_NV.0" depart="19.00" departLane="top3D4_0" departPos="5.10" departSpeed="10.00" departDelay="0.66" arrival="169.00" arrivalLane="A4left4_1" arrivalPos="286.40" arrivalSpeed="13.81" duration="150.00" routeLength="1476.73" waitingTime="23.00" waitingCount="2" stopTime="0.00" timeLoss="42.74" rerouteNo="0" devices="tripinfo_OD174_NV.0" vType="NV" speedFactor="1.00" vaporized=""/>
    <tripinfo id="OD369_NV.2" depart="44.00" departLane="right1E1_0" departPos="5.10" departSpeed="10.00" departDelay="0.23" arrival="169.00" arrivalLane="E4top4_1" arrivalPos="286.40" arrivalSpeed="13.29" duration="125.00" routeLength="1476.73" waitingTime="1.00" waitingCount="1" stopTime="0.00" timeLoss="18.06" rerouteNo="0" devices="tripinfo_OD369_NV.2" vType="NV" speedFactor="1.00" vaporized=""/>
    <tripinfo id="OD87_NV.0" depart="25.00" departLane="right0E0_0" departPos="5.10" departSpeed="10.00" departDelay="0.35" arrival="170.00" arrivalLane="B0bottom1_2" arrivalPos="286.40" arrivalSpeed="13.19" duration="145.00" routeLength="1492.21" waitingTime="14.00" waitingCount="2" stopTime="0.00" timeLoss="36.65" rerouteNo="0" devices="tripinfo_OD87_NV.0" vType="NV" speedFactor="1.00" vaporized=""/>
    <tripinfo id="OD320_NV.1" depart="75.00" departLane="left4A4_0" departPos="5.10" departSpeed="10.00" departDelay="0.44" arrival="171.00" arrivalLane="A2left2_0" arrivalPos="286.40" arrivalSpeed="13.77" duration="96.00" routeLength="1158.56" waitingTime="0.00" waitingCount="0" stopTime="0.00" timeLoss="10.48" rerouteNo="0" devices="tripinfo_OD320_NV.1" vType="NV" speedFactor="1.00" vaporized=""/>
    <tripinfo id="OD368_NV.1" depart="101.00" departLane="right1E1_0" departPos="5.10" departSpeed="10.00" departDelay="0.86" arrival="171.00" arrivalLane="E2right2_0" arrivalPos="286.40" arrivalSpeed="12.92" duration="70.00" routeLength="858.56" waitingTime="0.00" waitingCount="0" stopTime="0.00" timeLoss="6.25" rerouteNo="0" devices="tripinfo_OD368_NV.1" vType="NV" speedFactor="1.00" vaporized=""/>
    <tripinfo id="OD310_NV.4" depart="101.00" departLane="left4A4_0" departPos="5.10" departSpeed="10.00" departDelay="0.28" arrival="172.00" arrivalLane="A3left3_0" arrivalPos="286.40" arrivalSpeed="13.04" duration="71.00" routeLength="858.56" waitingTime="0.00" waitingCount="0" stopTime="0.00" timeLoss="7.78" rerouteNo="0" devices="tripinfo_OD310_NV.4" vType="NV" speedFactor="1.00" vaporized=""/>
    <tripinfo id="OD76_NV.1" depart="104.00" departLane="right0E0_0" departPos="5.10" departSpeed="10.00" departDelay="0.91" arrival="174.00" arrivalLane="E1right1_0" arrivalPos="286.40" arrivalSpeed="13.55" duration="70.00" routeLength="858.56" waitingTime="0.00" waitingCount="0" stopTime="0.00" timeLoss="6.51" rerouteNo="0" devices="tripinfo_OD76_NV.1" vType="NV" speedFactor="1.00" vaporized=""/>
    <tripinfo id="OD192_NV.0" depart="106.00" departLane="bottom1B0_0" departPos="5.10" departSpeed="10.00" departDelay="0.31" arrival="177.00" arrivalLane="C0bottom2_0" arrivalPos="286.40" arrivalSpeed="13.74" duration="71.00" routeLength="858.56" waitingTime="0.00" waitingCount="0" stopTime="0.00" timeLoss="7.69" rerouteNo="0" devices="tripinfo_OD192_NV.0" vType="NV" speedFactor="1.00" vaporized=""/>
    <tripinfo id="OD131_NV.0" depart="80.00" departLane="left1A1_0" departPos="5.10" departSpeed="10.00" departDelay="0.33" arrival="178.00" arrivalLane="A0bottom0_1" arrivalPos="286.40" arrivalSpeed="13.25" duration="98.00" routeLength="876.73" waitingTime="22.00" waitingCount="1" stopTime="0.00" timeLoss="34.19" rerouteNo="0" devices="tripinfo_OD131_NV.0" vType="NV" speedFactor="1.00" vaporized=""/>
    <tripinfo id="OD161_NV.0" depart="108.00" departLane="left2A2_0" departPos="5.10" departSpeed="10.00" departDelay="0.85" arrival="178.00" arrivalLane="A1left1_0" arrivalPos="286.40" arrivalSpeed="13.54" duration="70.00" routeLength="858.56" waitingTime="0.00" waitingCount="0" stopTime="0.00" timeLoss="6.69" rerouteNo="0" devices="tripinfo_OD161_NV.0" vType="NV" speedFactor="1.00" vaporized=""/>
    <tripinfo id="OD149_NV.0" depart="7.00" departLane="left0A0_0" departPos="5.10" departSpeed="10.00" departDelay="0.02" arrival="179.00" arrivalLane="A2left2_2" arrivalPos="286.40" arrivalSpeed="13.69" duration="172.00" routeLength="1189.52" waitingTime="72.00" waitingCount="2" stopTime="0.00" timeLoss="84.46" rerouteNo="0" devices="tripinfo_OD149_NV.0" vType="NV" speedFactor="1.00" vaporized=""/>
    <tripinfo id="OD374_NV.2" depart="86.00" departLane="right1E1_0" departPos="5.10" departSpeed="10.00" departDelay="0.03" arrival="179.00" arrivalLane="E3right3_0" arrivalPos="286.40" arrivalSpeed="13.17" duration="93.00" routeLength="1158.56" waitingTime="0.00" waitingCount="0" stopTime="0.00" timeLoss="8.01" rerouteNo="0" devices="tripinfo_OD374_NV.2" vType="NV" speedFactor="1.00" vaporized=""/>
    <tripinfo id="OD264_NV.0" depart="6.00" departLane="left3A3_0" departPos="5.10" departSpeed="10.00" departDelay="0.30" arrival="180.00" arrivalLane="A0bottom0_1" arrivalPos="286.40" arrivalSpeed="13.32" duration="174.00" routeLength="1476.73" waitingTime="45.00" waitingCount="2" stopTime="0.00" timeLoss="66.29" rerouteNo="0" devices="tripinfo_OD264_NV.0" vType="NV" speedFactor="1.00" vaporized=""/>
    <tripinfo id="OD149_NV.1" depart="40.00" departLane="left0A0_0" departPos="5.10" departSpeed="10.00" departDelay="0.33" arrival="181.00" arrivalLane="A2left2_2" arrivalPos="286.40" arrivalSpeed="12.61" duration="141.00" routeLength="1189.52" waitingTime="44.00" waitingCount="1" stopTime="0.00" timeLoss="53.65" rerouteNo="0" devices="tripinfo_OD149_NV.1" vType="NV" speedFactor="1.00" vaporized=""/>
    <tripinfo id="OD372_NV.0" depart="57.00" departLane="right1E1_0" departPos="5.10" departSpeed="10.00" departDelay="0.58" arrival="181.00" arrivalLane="E0right0_2" arrivalPos="286.40" arrivalSpeed="12.59" duration="124.00" routeLength="889.52" waitingTime="47.00" waitingCount="1" stopTime="0.00" timeLoss="58.34" rerouteNo="0" devices="tripinfo_OD372_NV.0" vType="NV" speedFactor="1.00" vaporized=""/>
    <tripinfo id="OD167_RV.0" depart="86.00" departLane="left2A2_0" departPos="5.10" departSpeed="10.00" departDelay="0.76" arrival="181.00" arrivalLane="A0left0_0" arrivalPos="286.40" arrivalSpeed="13.70" duration="95.00" routeLength="1158.56" waitingTime="0.00" waitingCount="0" stopTime="0.00" timeLoss="9.77" rerouteNo="0" devices="tripinfo_OD167_RV.0" vType="RV" speedFactor="1.00" vaporized=""/>
    <tripinfo id="OD321_NV.0" depart="20.00" departLane="left4A4_0" departPos="5.10" departSpeed="10.00" departDelay="0.96" arrival="182.00" arrivalLane="A0bottom0_1" arrivalPos="286.40" arrivalSpeed="12.69" duration="162.00" routeLength="1776.73" waitingTime="8.00" waitingCount="1" stopTime="0.00" timeLoss="33.02" rerouteNo="0" devices="tripinfo_OD321_NV.0" vType="NV" speedFactor="1.00" vaporized=""/>
    <tripinfo id="OD161_NV.1" depart="109.00" departLane="left2A2_0" departPos="5.10" departSpeed="10.00" departDelay="1.36" arrival="182.00" arrivalLane="A1left1_0" arrivalPos="286.40" arrivalSpeed="13.65" duration="73.00" routeLength="858.56" waitingTime="0.00" waitingCount="0" stopTime="0.00" timeLoss="8.55" rerouteNo="0" devices="tripinfo_OD161_NV.1" vType="NV" speedFactor="1.00" vaporized=""/>
    <tripinfo id="OD169_NV.2" depart="80.00" departLane="left2A2_0" departPos="5.10" departSpeed="10.00" departDelay="0.28" arrival="184.00" arrivalLane="A0bottom0_1" arrivalPos="286.40" arrivalSpeed="12.55" duration="104.00" routeLength="1176.73" waitingTime="0.00" waitingCount="0" stopTime="0.00" timeLoss="17.48" rerouteNo="0" devices="tripinfo_OD169_NV.2" vType="NV" speedFactor="1.00" vaporized=""/>
    <tripinfo id="OD199_NV.0" depart="16.00" departLane="bottom1B0_0" departPos="5.10" departSpeed="10.00" departDelay="3.02" arrival="185.00" arrivalLane="E0bottom4_0" arrivalPos="286.40" arrivalSpeed="13.43" duration="169.00" routeLength="1458.56" waitingTime="42.00" waitingCount="1" stopTime="0.00" timeLoss="62.47" rerouteNo="0" devices="tripinfo_OD199_NV.0" vType="NV" speedFactor="1.00" vaporized=""/>
    <tripinfo id="OD322_NV.0" depart="34.00" departLane="left4A4_0" departPos="5.10" departSpeed="10.00" departDelay="0.29" arrival="185.00" arrivalLane="D4top3_2" arrivalPos="286.40" arrivalSpeed="12.49" duration="151.00" routeLength="1492.21" waitingTime="16.00" waitingCount="3" stopTime="0.00" timeLoss="42.89" rerouteNo="0" devices="tripinfo_OD322_NV.0" vType="NV" speedFactor="1.00" vaporized=""/>
    <tripinfo id="OD184_NV.1" depart="93.00" departLane="top3D4_0" departPos="5.10" departSpeed="10.00" departDelay="0.08" arrival="187.00" arrivalLane="B4top1_0" arrivalPos="286.40" arrivalSpeed="13.03" duration="94.00" routeLength="1158.56" waitingTime="0.00" waitingCount="0" stopTime="0.00" timeLoss="8.42" rerouteNo="0" devices="tripinfo_OD184_NV.1" vType="NV" speedFactor="1.00" vaporized=""/>