<?xml version="1.0" encoding="UTF-8"?>

<!-- generated on 2025-02-18 09:53:17 by Eclipse SUMO sumo Version 1.20.0
<configuration xmlns:xsi="http://www.w3.org/2001/XMLSchema-instance" xsi:noNamespaceSchemaLocation="http://sumo.dlr.de/xsd/sumoConfiguration.xsd">

    <input>
        <net-file value="./envs/5x5/5x5.net.xml"/>
        <route-files value="./envs/5x5/Demand_20.rou.xml"/>
    </input>

    <output>
        <tripinfo-output value="./online_train/5x5\online_train_SAC_multi_agents/tripinfo/tripinfo_ep108.xml"/>
    </output>

    <time>
        <begin value="0"/>
    </time>

    <processing>
        <time-to-teleport value="-1"/>
        <waiting-time-memory value="1800"/>
    </processing>

    <report>
        <no-step-log value="true"/>
    </report>

    <traci_server>
        <remote-port value="59869"/>
    </traci_server>

</configuration>
-->

<tripinfos xmlns:xsi="http://www.w3.org/2001/XMLSchema-instance" xsi:noNamespaceSchemaLocation="http://sumo.dlr.de/xsd/tripinfo_file.xsd">
    <tripinfo id="OD310_NV.0" depart="4.00" departLane="left4A4_0" departPos="5.10" departSpeed="10.00" departDelay="1.48" arrival="76.00" arrivalLane="A3left3_0" arrivalPos="286.40" arrivalSpeed="12.95" duration="72.00" routeLength="858.56" waitingTime="0.00" waitingCount="0" stopTime="0.00" timeLoss="8.41" rerouteNo="0" devices="tripinfo_OD310_NV.0" vType="NV" speedFactor="1.00" vaporized=""/>
    <tripinfo id="OD310_NV.1" depart="8.00" departLane="left4A4_0" departPos="5.10" departSpeed="10.00" departDelay="3.20" arrival="78.00" arrivalLane="A3left3_0" arrivalPos="286.40" arrivalSpeed="13.51" duration="70.00" routeLength="858.56" waitingTime="0.00" waitingCount="0" stopTime="0.00" timeLoss="7.29" rerouteNo="0" devices="tripinfo_OD310_NV.1" vType="NV" speedFactor="1.00" vaporized=""/>
    <tripinfo id="OD102_NV.0" depart="37.00" departLane="right4E4_0" departPos="5.10" departSpeed="10.00" departDelay="0.87" arrival="84.00" arrivalLane="E4top4_0" arrivalPos="286.40" arrivalSpeed="13.22" duration="47.00" routeLength="576.73" waitingTime="0.00" waitingCount="0" stopTime="0.00" timeLoss="4.31" rerouteNo="0" devices="tripinfo_OD102_NV.0" vType="NV" speedFactor="1.00" vaporized=""/>
    <tripinfo id="OD129_NV.0" depart="19.00" departLane="left1A1_0" departPos="5.10" departSpeed="10.00" departDelay="0.11" arrival="90.00" arrivalLane="A0left0_0" arrivalPos="286.40" arrivalSpeed="13.87" duration="71.00" routeLength="858.56" waitingTime="0.00" waitingCount="0" stopTime="0.00" timeLoss="7.65" rerouteNo="0" devices="tripinfo_OD129_NV.0" vType="NV" speedFactor="1.00" vaporized=""/>
    <tripinfo id="OD284_NV.0" depart="22.00" departLane="top4E4_0" departPos="5.10" departSpeed="10.00" departDelay="1.14" arrival="93.00" arrivalLane="D4top3_0" arrivalPos="286.40" arrivalSpeed="13.62" duration="71.00" routeLength="858.56" waitingTime="0.00" waitingCount="0" stopTime="0.00" timeLoss="7.83" rerouteNo="0" devices="tripinfo_OD284_NV.0" vType="NV" speedFactor="1.00" vaporized=""/>
    <tripinfo id="OD305_NV.0" depart="11.00" departLane="left4A4_0" departPos="5.10" departSpeed="10.00" departDelay="1.44" arrival="97.00" arrivalLane="A4top0_2" arrivalPos="286.40" arrivalSpeed="12.77" duration="86.00" routeLength="592.21" waitingTime="34.00" waitingCount="1" stopTime="0.00" timeLoss="42.33" rerouteNo="0" devices="tripinfo_OD305_NV.0" vType="NV" speedFactor="1.00" vaporized=""/>
    <tripinfo id="OD129_RV.0" depart="32.00" departLane="left1A1_0" departPos="5.10" departSpeed="10.00" departDelay="0.10" arrival="101.00" arrivalLane="A0left0_0" arrivalPos="286.40" arrivalSpeed="13.88" duration="69.00" routeLength="858.56" waitingTime="0.00" waitingCount="0" stopTime="0.00" timeLoss="6.12" rerouteNo="0" devices="tripinfo_OD129_RV.0" vType="RV" speedFactor="1.00" vaporized=""/>
    <tripinfo id="OD365_NV.0" depart="7.00" departLane="right1E1_0" departPos="5.10" departSpeed="10.00" departDelay="0.05" arrival="104.00" arrivalLane="D0bottom3_1" arrivalPos="286.40" arrivalSpeed="12.64" duration="97.00" routeLength="1192.21" waitingTime="1.00" waitingCount="1" stopTime="0.00" timeLoss="10.05" rerouteNo="0" devices="tripinfo_OD365_NV.0" vType="NV" speedFactor="1.00" vaporized=""/>
    <tripinfo id="OD244_NV.0" depart="9.00" departLane="top0A4_0" departPos="5.10" departSpeed="10.00" departDelay="1.64" arrival="105.00" arrivalLane="A2left2_0" arrivalPos="286.40" arrivalSpeed="13.63" duration="96.00" routeLength="1176.73" waitingTime="0.00" waitingCount="0" stopTime="0.00" timeLoss="10.06" rerouteNo="0" devices="tripinfo_OD244_NV.0" vType="NV" speedFactor="1.00" vaporized=""/>
    <tripinfo id="OD310_NV.2" depart="38.00" departLane="left4A4_0" departPos="5.10" departSpeed="10.00" departDelay="0.76" arrival="109.00" arrivalLane="A3left3_0" arrivalPos="286.40" arrivalSpeed="12.56" duration="71.00" routeLength="858.56" waitingTime="0.00" waitingCount="0" stopTime="0.00" timeLoss="7.00" rerouteNo="0" devices="tripinfo_OD310_NV.2" vType="NV" speedFactor="1.00" vaporized=""/>
    <tripinfo id="OD354_NV.0" depart="10.00" departLane="bottom2C0_0" departPos="5.10" departSpeed="10.00" departDelay="0.22" arrival="110.00" arrivalLane="B0bottom1_2" arrivalPos="286.40" arrivalSpeed="12.53" duration="100.00" routeLength="889.52" waitingTime="24.00" waitingCount="1" stopTime="0.00" timeLoss="34.38" rerouteNo="0" devices="tripinfo_OD354_NV.0" vType="NV" speedFactor="1.00" vaporized=""/>
    <tripinfo id="OD176_NV.0" depart="40.00" departLane="top3D4_0" departPos="5.10" departSpeed="10.00" departDelay="0.16" arrival="111.00" arrivalLane="C4top2_0" arrivalPos="286.40" arrivalSpeed="13.23" duration="71.00" routeLength="858.56" waitingTime="0.00" waitingCount="0" stopTime="0.00" timeLoss="7.09" rerouteNo="0" devices="tripinfo_OD176_NV.0" vType="NV" speedFactor="1.00" vaporized=""/>
    <tripinfo id="OD65_RV.0" depart="48.00" departLane="bottom3D0_0" departPos="5.10" departSpeed="10.00" departDelay="1.05" arrival="119.00" arrivalLane="E0bottom4_0" arrivalPos="286.40" arrivalSpeed="12.55" duration="71.00" routeLength="858.56" waitingTime="0.00" waitingCount="0" stopTime="0.00" timeLoss="7.04" rerouteNo="0" devices="tripinfo_OD65_RV.0" vType="RV" speedFactor="1.00" vaporized=""/>
    <tripinfo id="OD50_NV.0" depart="49.00" departLane="right2E2_0" departPos="5.10" departSpeed="10.00" departDelay="0.93" arrival="120.00" arrivalLane="E3right3_0" arrivalPos="286.40" arrivalSpeed="13.24" duration="71.00" routeLength="858.56" waitingTime="0.00" waitingCount="0" stopTime="0.00" timeLoss="7.66" rerouteNo="0" devices="tripinfo_OD50_NV.0" vType="NV" speedFactor="1.00" vaporized=""/>
    <tripinfo id="OD353_RV.0" depart="6.00" departLane="bottom2C0_0" departPos="5.10" departSpeed="10.00" departDelay="3.40" arrival="123.00" arrivalLane="E0right0_1" arrivalPos="286.40" arrivalSpeed="13.83" duration="117.00" routeLength="1176.73" waitingTime="19.00" waitingCount="1" stopTime="0.00" timeLoss="30.59" rerouteNo="0" devices="tripinfo_OD353_RV.0" vType="RV" speedFactor="1.00" vaporized=""/>
    <tripinfo id="OD320_NV.0" depart="28.00" departLane="left4A4_0" departPos="5.10" departSpeed="10.00" departDelay="1.49" arrival="123.00" arrivalLane="A2left2_0" arrivalPos="286.40" arrivalSpeed="13.60" duration="95.00" routeLength="1158.56" waitingTime="0.00" waitingCount="0" stopTime="0.00" timeLoss="10.12" rerouteNo="0" devices="tripinfo_OD320_NV.0" vType="NV" speedFactor="1.00" vaporized=""/>
    <tripinfo id="OD65_NV.0" depart="54.00" departLane="bottom3D0_0" departPos="5.10" departSpeed="10.00" departDelay="0.88" arrival="125.00" arrivalLane="E0bottom4_0" arrivalPos="286.40" arrivalSpeed="12.60" duration="71.00" routeLength="858.56" waitingTime="0.00" waitingCount="0" stopTime="0.00" timeLoss="7.41" rerouteNo="0" devices="tripinfo_OD65_NV.0" vType="NV" speedFactor="1.00" vaporized=""/>
    <tripinfo id="OD284_NV.1" depart="54.00" departLane="top4E4_0" departPos="5.10" departSpeed="10.00" departDelay="0.77" arrival="125.00" arrivalLane="D4top3_0" arrivalPos="286.40" arrivalSpeed="13.81" duration="71.00" routeLength="858.56" waitingTime="0.00" waitingCount="0" stopTime="0.00" timeLoss="7.17" rerouteNo="0" devices="tripinfo_OD284_NV.1" vType="NV" speedFactor="1.00" vaporized=""/>
    <tripinfo id="OD50_NV.1" depart="60.00" departLane="right2E2_0" departPos="5.10" departSpeed="10.00" departDelay="0.59" arrival="132.00" arrivalLane="E3right3_0" arrivalPos="286.40" arrivalSpeed="12.72" duration="72.00" routeLength="858.56" waitingTime="0.00" waitingCount="0" stopTime="0.00" timeLoss="8.20" rerouteNo="0" devices="tripinfo_OD50_NV.1" vType="NV" speedFactor="1.00" vaporized=""/>
    <tripinfo id="OD76_NV.0" depart="65.00" departLane="right0E0_0" departPos="5.10" departSpeed="10.00" departDelay="0.41" arrival="136.00" arrivalLane="E1right1_0" arrivalPos="286.40" arrivalSpeed="12.75" duration="71.00" routeLength="858.56" waitingTime="0.00" waitingCount="0" stopTime="0.00" timeLoss="7.70" rerouteNo="0" devices="tripinfo_OD76_NV.0" vType="NV" speedFactor="1.00" vaporized=""/>
    <tripinfo id="OD244_NV.1" depart="45.00" departLane="top0A4_0" departPos="5.10" departSpeed="10.00" departDelay="0.91" arrival="137.00" arrivalLane="A2left2_0" arrivalPos="286.40" arrivalSpeed="13.37" duration="92.00" routeLength="1176.73" waitingTime="0.00" waitingCount="0" stopTime="0.00" timeLoss="6.04" rerouteNo="0" devices="tripinfo_OD244_NV.1" vType="NV" speedFactor="1.00" vaporized=""/>
    <tripinfo id="OD59_NV.0" depart="6.00" departLane="bottom3D0_0" departPos="5.10" departSpeed="10.00" departDelay="0.38" arrival="138.00" arrivalLane="C0bottom2_2" arrivalPos="286.40" arrivalSpeed="13.78" duration="132.00" routeLength="889.52" waitingTime="53.00" waitingCount="2" stopTime="0.00" timeLoss="66.39" rerouteNo="0" devices="tripinfo_OD59_NV.0" vType="NV" speedFactor="1.00" vaporized=""/>
    <tripinfo id="OD206_RV.0" depart="10.00" departLane="bottom1B0_0" departPos="5.10" departSpeed="10.00" departDelay="0.48" arrival="138.00" arrivalLane="A2left2_2" arrivalPos="286.40" arrivalSpeed="12.53" duration="128.00" routeLength="1471.35" waitingTime="5.00" waitingCount="1" stopTime="0.00" timeLoss="20.21" rerouteNo="0" devices="tripinfo_OD206_RV.0" vType="RV" speedFactor="1.00" vaporized=""/>
    <tripinfo id="OD179_NV.0" depart="57.00" departLane="top3D4_0" departPos="5.10" departSpeed="10.00" departDelay="0.69" arrival="139.00" arrivalLane="E4top4_2" arrivalPos="286.40" arrivalSpeed="13.88" duration="82.00" routeLength="889.52" waitingTime="7.00" waitingCount="1" stopTime="0.00" timeLoss="16.71" rerouteNo="0" devices="tripinfo_OD179_NV.0" vType="NV" speedFactor="1.00" vaporized=""/>
    <tripinfo id="OD50_NV.2" depart="71.00" departLane="right2E2_0" departPos="5.10" departSpeed="10.00" departDelay="0.74" arrival="142.00" arrivalLane="E3right3_0" arrivalPos="286.40" arrivalSpeed="12.43" duration="71.00" routeLength="858.56" waitingTime="0.00" waitingCount="0" stopTime="0.00" timeLoss="7.20" rerouteNo="0" devices="tripinfo_OD50_NV.2" vType="NV" speedFactor="1.00" vaporized=""/>
    <tripinfo id="OD301_NV.0" depart="1.00" departLane="top1B4_0" departPos="5.10" departSpeed="10.00" departDelay="0.26" arrival="143.00" arrivalLane="A2left2_0" arrivalPos="286.40" arrivalSpeed="12.52" duration="142.00" routeLength="1455.87" waitingTime="21.00" waitingCount="1" stopTime="0.00" timeLoss="34.72" rerouteNo="0" devices="tripinfo_OD301_NV.0" vType="NV" speedFactor="1.00" vaporized=""/>
    <tripinfo id="OD291_NV.0" depart="3.00" departLane="top1B4_0" departPos="5.10" departSpeed="10.00" departDelay="0.51" arrival="143.00" arrivalLane="A3left3_1" arrivalPos="286.40" arrivalSpeed="13.23" duration="140.00" routeLength="1176.73" waitingTime="39.00" waitingCount="2" stopTime="0.00" timeLoss="54.56" rerouteNo="0" devices="tripinfo_OD291_NV.0" vType="NV" speedFactor="1.00" vaporized=""/>
    <tripinfo id="OD184_NV.0" depart="25.00" departLane="top3D4_0" departPos="5.10" departSpeed="10.00" departDelay="5.03" arrival="145.00" arrivalLane="B4top1_0" arrivalPos="286.40" arrivalSpeed="12.82" duration="120.00" routeLength="1158.56" waitingTime="19.00" waitingCount="1" stopTime="0.00" timeLoss="34.05" rerouteNo="0" devices="tripinfo_OD184_NV.0" vType="NV" speedFactor="1.00" vaporized=""/>
    <tripinfo id="OD179_NV.1" depart="75.00" departLane="top3D4_0" departPos="5.10" departSpeed="10.00" departDelay="0.77" arrival="146.00" arrivalLane="E4top4_2" arrivalPos="286.40" arrivalSpeed="12.59" duration="71.00" routeLength="889.52" waitingTime="0.00" waitingCount="0" stopTime="0.00" timeLoss="4.98" rerouteNo="0" devices="tripinfo_OD179_NV.1" vType="NV" speedFactor="1.00" vaporized=""/>
    <tripinfo id="OD176_NV.1" depart="76.00" departLane="top3D4_0" departPos="5.10" departSpeed="10.00" departDelay="1.17" arrival="146.00" arrivalLane="C4top2_0" arrivalPos="286.40" arrivalSpeed="13.55" duration="70.00" routeLength="858.56" waitingTime="0.00" waitingCount="0" stopTime="0.00" timeLoss="6.08" rerouteNo="0" devices="tripinfo_OD176_NV.1" vType="NV" speedFactor="1.00" vaporized=""/>
    <tripinfo id="OD184_RV.0" depart="29.00" departLane="top3D4_0" departPos="5.10" departSpeed="10.00" departDelay="1.79" arrival="147.00" arrivalLane="B4top1_0" arrivalPos="286.40" arrivalSpeed="13.06" duration="118.00" routeLength="1158.56" waitingTime="16.00" waitingCount="1" stopTime="0.00" timeLoss="32.43" rerouteNo="0" devices="tripinfo_OD184_RV.0" vType="RV" speedFactor="1.00" vaporized=""/>
    <tripinfo id="OD113_NV.0" depart="35.00" departLane="right4E4_0" departPos="5.10" departSpeed="10.00" departDelay="0.56" arrival="149.00" arrivalLane="D4top3_0" arrivalPos="286.40" arrivalSpeed="13.12" duration="114.00" routeLength="876.73" waitingTime="39.00" waitingCount="1" stopTime="0.00" timeLoss="49.91" rerouteNo="0" devices="tripinfo_OD113_NV.0" vType="NV" speedFactor="1.00" vaporized=""/>
    <tripinfo id="OD368_NV.0" depart="78.00" departLane="right1E1_0" departPos="5.10" departSpeed="10.00" departDelay="0.11" arrival="149.00" arrivalLane="E2right2_0" arrivalPos="286.40" arrivalSpeed="12.84" duration="71.00" routeLength="858.56" waitingTime="0.00" waitingCount="0" stopTime="0.00" timeLoss="7.61" rerouteNo="0" devices="tripinfo_OD368_NV.0" vType="NV" speedFactor="1.00" vaporized=""/>
    <tripinfo id="OD374_NV.0" depart="12.00" departLane="right1E1_0" departPos="5.10" departSpeed="10.00" departDelay="2.10" arrival="151.00" arrivalLane="E3right3_0" arrivalPos="286.40" arrivalSpeed="13.63" duration="139.00" routeLength="1158.56" waitingTime="40.00" waitingCount="1" stopTime="0.00" timeLoss="54.57" rerouteNo="0" devices="tripinfo_OD374_NV.0" vType="NV" speedFactor="1.00" vaporized=""/>
    <tripinfo id="OD45_NV.0" depart="6.00" departLane="right2E2_0" departPos="5.10" departSpeed="10.00" departDelay="0.70" arrival="153.00" arrivalLane="E4top4_1" arrivalPos="286.40" arrivalSpeed="12.87" duration="147.00" routeLength="1176.73" waitingTime="44.00" waitingCount="2" stopTime="0.00" timeLoss="61.13" rerouteNo="0" devices="tripinfo_OD45_NV.0" vType="NV" speedFactor="1.00" vaporized=""/>
    <tripinfo id="OD288_RV.0" depart="59.00" departLane="top1B4_0" departPos="5.10" departSpeed="10.00" departDelay="1.65" arrival="153.00" arrivalLane="A4left4_1" arrivalPos="286.40" arrivalSpeed="12.44" duration="94.00" routeLength="876.73" waitingTime="18.00" waitingCount="1" stopTime="0.00" timeLoss="29.89" rerouteNo="0" devices="tripinfo_OD288_RV.0" vType="RV" speedFactor="1.00" vaporized=""/>
    <tripinfo id="OD310_NV.3" depart="82.00" departLane="left4A4_0" departPos="5.10" departSpeed="10.00" departDelay="0.90" arrival="153.00" arrivalLane="A3left3_0" arrivalPos="286.40" arrivalSpeed="13.15" duration="71.00" routeLength="858.56" waitingTime="0.00" waitingCount="0" stopTime="0.00" timeLoss="6.95" rerouteNo="0" devices="tripinfo_OD310_NV.3" vType="NV" speedFactor="1.00" vaporized=""/>
    <tripinfo id="OD7_NV.0" depart="77.00" departLane="right3E3_0" departPos="5.10" departSpeed="10.00" departDelay="0.10" arrival="155.00" arrivalLane="E4top4_1" arrivalPos="286.40" arrivalSpeed="13.12" duration="78.00" routeLength="876.73" waitingTime="1.00" waitingCount="1" stopTime="0.00" timeLoss="13.14" rerouteNo="0" devices="tripinfo_OD7_NV.0" vType="NV" speedFactor="1.00" vaporized=""/>
    <tripinfo id="OD349_NV.0" depart="4.00" departLane="bottom2C0_0" departPos="5.10" departSpeed="10.00" departDelay="1.63" arrival="158.00" arrivalLane="E2right2_0" arrivalPos="286.40" arrivalSpeed="13.26" duration="154.00" routeLength="1755.87" waitingTime="8.00" waitingCount="1" stopTime="0.00" timeLoss="25.34" rerouteNo="0" devices="tripinfo_OD349_NV.0" vType="NV" speedFactor="1.00" vaporized=""/>
    <tripinfo id="OD374_NV.1" depart="60.00" departLane="right1E1_0" departPos="5.10" departSpeed="10.00" departDelay="0.36" arrival="159.00" arrivalLane="E3right3_0" arrivalPos="286.40" arrivalSpeed="13.26" duration="99.00" routeLength="1158.56" waitingTime="0.00" waitingCount="0" stopTime="0.00" timeLoss="14.00" rerouteNo="0" devices="tripinfo_OD374_NV.1" vType="NV" speedFactor="1.00" vaporized=""/>
    <tripinfo id="OD21_RV.0" depart="16.00" departLane="top2C4_0" departPos="5.10" departSpeed="10.00" departDelay="0.63" arrival="161.00" arrivalLane="A4left4_1" arrivalPos="286.40" arrivalSpeed="13.73" duration="145.00" routeLength="1176.73" waitingTime="47.00" waitingCount="1" stopTime="0.00" timeLoss="59.20" rerouteNo="0" devices="tripinfo_OD21_RV.0" vType="RV" speedFactor="1.00" vaporized=""/>
    <tripinfo id="OD14_NV.0" depart="90.00" departLane="right3E3_0" departPos="5.10" departSpeed="10.00" departDelay="0.85" arrival="161.00" arrivalLane="E4right4_0" arrivalPos="286.40" arrivalSpeed="13.41" duration="71.00" routeLength="858.56" waitingTime="0.00" waitingCount="0" stopTime="0.00" timeLoss="7.53" rerouteNo="0" devices="tripinfo_OD14_NV.0" vType="NV" speedFactor="1.00" vaporized=""/>
    <tripinfo id="OD21_RV.1" depart="36.00" departLane="top2C4_0" departPos="5.10" departSpeed="10.00" departDelay="0.64" arrival="163.00" arrivalLane="A4left4_1" arrivalPos="286.40" arrivalSpeed="12.49" duration="127.00" routeLength="1176.73" waitingTime="28.00" waitingCount="1" stopTime="0.00" timeLoss="40.76" rerouteNo="0" devices="tripinfo_OD21_RV.1" vType="RV" speedFactor="1.00" vaporized=""/>
    <tripinfo id="OD131_NV.0" depart="80.00" departLane="left1A1_0" departPos="5.10" departSpeed="10.00" departDelay="0.33" arrival="163.00" arrivalLane="A0bottom0_1" arrivalPos="286.40" arrivalSpeed="13.59" duration="83.00" routeLength="876.73" waitingTime="9.00" waitingCount="1" stopTime="0.00" timeLoss="18.11" rerouteNo="0" devices="tripinfo_OD131_NV.0" vType="NV" speedFactor="1.00" vaporized=""/>
    <tripinfo id="OD169_RV.0" depart="7.00" departLane="left2A2_0" departPos="5.10" departSpeed="10.00" departDelay="0.60" arrival="165.00" arrivalLane="A0bottom0_1" arrivalPos="286.40" arrivalSpeed="13.17" duration="158.00" routeLength="1176.73" waitingTime="57.00" waitingCount="2" stopTime="0.00" timeLoss="72.32" rerouteNo="0" devices="tripinfo_OD169_RV.0" vType="RV" speedFactor="1.00" vaporized=""/>
    <tripinfo id="OD169_NV.0" depart="17.00" departLane="left2A2_0" departPos="5.10" departSpeed="10.00" departDelay="0.59" arrival="167.00" arrivalLane="A0bottom0_1" arrivalPos="286.40" arrivalSpeed="13.65" duration="150.00" routeLength="1176.73" waitingTime="43.00" waitingCount="1" stopTime="0.00" timeLoss="63.84" rerouteNo="0" devices="tripinfo_OD169_NV.0" vType="NV" speedFactor="1.00" vaporized=""/>
    <tripinfo id="OD174_NV.0" depart="19.00" departLane="top3D4_0" departPos="5.10" departSpeed="10.00" departDelay="0.66" arrival="167.00" arrivalLane="A4left4_1" arrivalPos="286.40" arrivalSpeed="12.59" duration="148.00" routeLength="1476.73" waitingTime="23.00" waitingCount="1" stopTime="0.00" timeLoss="40.62" rerouteNo="0" devices="tripinfo_OD174_NV.0" vType="NV" speedFactor="1.00" vaporized=""/>
    <tripinfo id="OD370_NV.0" depart="29.00" departLane="right1E1_0" departPos="5.10" departSpeed="10.00" departDelay="0.78" arrival="167.00" arrivalLane="E0bottom4_1" arrivalPos="286.40" arrivalSpeed="12.70" duration="138.00" routeLength="892.21" waitingTime="65.00" waitingCount="1" stopTime="0.00" timeLoss="73.27" rerouteNo="0" devices="tripinfo_OD370_NV.0" vType="NV" speedFactor="1.00" vaporized=""/>
    <tripinfo id="OD309_NV.0" depart="31.00" departLane="left4A4_0" departPos="5.10" departSpeed="10.00" departDelay="0.45" arrival="167.00" arrivalLane="C4top2_2" arrivalPos="286.40" arrivalSpeed="12.89" duration="136.00" routeLength="1192.21" waitingTime="33.00" waitingCount="1" stopTime="0.00" timeLoss="49.46" rerouteNo="0" devices="tripinfo_OD309_NV.0" vType="NV" speedFactor="1.00" vaporized=""/>
    <tripinfo id="OD174_NV.1" depart="23.00" departLane="top3D4_0" departPos="5.10" departSpeed="10.00" departDelay="3.67" arrival="169.00" arrivalLane="A4left4_1" arrivalPos="286.40" arrivalSpeed="13.32" duration="146.00" routeLength="1476.73" waitingTime="22.00" waitingCount="1" stopTime="0.00" timeLoss="38.67" rerouteNo="0" devices="tripinfo_OD174_NV.1" vType="NV" speedFactor="1.00" vaporized=""/>
    <tripinfo id="OD169_NV.1" depart="46.00" departLane="left2A2_0" departPos="5.10" departSpeed="10.00" departDelay="0.47" arrival="169.00" arrivalLane="A0bottom0_1" arrivalPos="286.40" arrivalSpeed="13.04" duration="123.00" routeLength="1176.73" waitingTime="16.00" waitingCount="1" stopTime="0.00" timeLoss="37.25" rerouteNo="0" devices="tripinfo_OD169_NV.1" vType="NV" speedFactor="1.00" vaporized=""/>
    <tripinfo id="OD370_NV.1" depart="31.00" departLane="right1E1_0" departPos="5.10" departSpeed="10.00" departDelay="1.52" arrival="170.00" arrivalLane="E0bottom4_1" arrivalPos="286.40" arrivalSpeed="12.62" duration="139.00" routeLength="892.21" waitingTime="63.00" waitingCount="1" stopTime="0.00" timeLoss="74.21" rerouteNo="0" devices="tripinfo_OD370_NV.1" vType="NV" speedFactor="1.00" vaporized=""/>
    <tripinfo id="OD368_NV.1" depart="101.00" departLane="right1E1_0" departPos="5.10" departSpeed="10.00" departDelay="0.86" arrival="171.00" arrivalLane="E2right2_0" arrivalPos="286.40" arrivalSpeed="13.38" duration="70.00" routeLength="858.56" waitingTime="0.00" waitingCount="0" stopTime="0.00" timeLoss="6.56" rerouteNo="0" devices="tripinfo_OD368_NV.1" vType="NV" speedFactor="1.00" vaporized=""/>
    <tripinfo id="OD310_NV.4" depart="101.00" departLane="left4A4_0" departPos="5.10" departSpeed="10.00" departDelay="0.28" arrival="172.00" arrivalLane="A3left3_0" arrivalPos="286.40" arrivalSpeed="12.93" duration="71.00" routeLength="858.56" waitingTime="0.00" waitingCount="0" stopTime="0.00" timeLoss="7.30" rerouteNo="0" devices="tripinfo_OD310_NV.4" vType="NV" speedFactor="1.00" vaporized=""/>
    <tripinfo id="OD68_RV.0" depart="20.00" departLane="bottom3D0_0" departPos="5.10" departSpeed="10.00" departDelay="0.38" arrival="175.00" arrivalLane="B0bottom1_2" arrivalPos="286.40" arrivalSpeed="13.42" duration="155.00" routeLength="1189.52" waitingTime="51.00" waitingCount="2" stopTime="0.00" timeLoss="67.63" rerouteNo="0" devices="tripinfo_OD68_RV.0" vType="RV" speedFactor="1.00" vaporized=""/>
    <tripinfo id="OD52_NV.0" depart="59.00" departLane="right2E2_0" departPos="5.10" departSpeed="10.00" departDelay="0.01" arrival="175.00" arrivalLane="E4right4_0" arrivalPos="286.40" arrivalSpeed="13.67" duration="116.00" routeLength="1158.56" waitingTime="18.00" waitingCount="1" stopTime="0.00" timeLoss="30.39" rerouteNo="0" devices="tripinfo_OD52_NV.0" vType="NV" speedFactor="1.00" vaporized=""/>
    <tripinfo id="OD76_NV.1" depart="104.00" departLane="right0E0_0" departPos="5.10" departSpeed="10.00" departDelay="0.91" arrival="175.00" arrivalLane="E1right1_0" arrivalPos="286.40" arrivalSpeed="13.31" duration="71.00" routeLength="858.56" waitingTime="0.00" waitingCount="0" stopTime="0.00" timeLoss="7.56" rerouteNo="0" devices="tripinfo_OD76_NV.1" vType="NV" speedFactor="1.00" vaporized=""/>
    <tripinfo id="OD369_NV.0" depart="5.00" departLane="right1E1_0" departPos="5.10" departSpeed="10.00" departDelay="2.04" arrival="176.00" arrivalLane="E4top4_1" arrivalPos="286.40" arrivalSpeed="13.14" duration="171.00" routeLength="1476.73" waitingTime="44.00" waitingCount="1" stopTime="0.00" timeLoss="63.56" rerouteNo="0" devices="tripinfo_OD369_NV.0" vType="NV" speedFactor="1.00" vaporized=""/>
    <tripinfo id="OD192_NV.0" depart="106.00" departLane="bottom1B0_0" departPos="5.10" departSpeed="10.00" departDelay="0.31" arrival="176.00" arrivalLane="C0bottom2_0" arrivalPos="286.40" arrivalSpeed="13.17" duration="70.00" routeLength="858.56" waitingTime="0.00" waitingCount="0" stopTime="0.00" timeLoss="6.92" rerouteNo="0" devices="tripinfo_OD192_NV.0" vType="NV" speedFactor="1.00" vaporized=""/>
    <tripinfo id="OD149_NV.0" depart="7.00" departLane="left0A0_0" departPos="5.10" departSpeed="10.00" departDelay="0.02" arrival="178.00" arrivalLane="A2left2_2" arrivalPos="286.40" arrivalSpeed="13.75" duration="171.00" routeLength="1189.52" waitingTime="66.00" waitingCount="3" stopTime="0.00" timeLoss="83.51" rerouteNo="0" devices="tripinfo_OD149_NV.0" vType="NV" speedFactor="1.00" vaporized=""/>
    <tripinfo id="OD369_NV.1" depart="26.00" departLane="right1E1_0" departPos="5.10" departSpeed="10.00" departDelay="0.50" arrival="178.00" arrivalLane="E4top4_1" arrivalPos="286.40" arrivalSpeed="12.46" duration="152.00" routeLength="1476.73" waitingTime="31.00" waitingCount="1" stopTime="0.00" timeLoss="44.47" rerouteNo="0" devices="tripinfo_OD369_NV.1" vType="NV" speedFactor="1.00" vaporized=""/>
    <tripinfo id="OD161_NV.0" depart="108.00" departLane="left2A2_0" departPos="5.10" departSpeed="10.00" departDelay="0.85" arrival="178.00" arrivalLane="A1left1_0" arrivalPos="286.40" arrivalSpeed="12.73" duration="70.00" routeLength="858.56" waitingTime="0.00" waitingCount="0" stopTime="0.00" timeLoss="6.66" rerouteNo="0" devices="tripinfo_OD161_NV.0" vType="NV" speedFactor="1.00" vaporized=""/>
    <tripinfo id="OD149_NV.1" depart="40.00" departLane="left0A0_0" departPos="5.10" departSpeed="10.00" departDelay="0.33" arrival="179.00" arrivalLane="A2left2_2" arrivalPos="286.40" arrivalSpeed="13.87" duration="139.00" routeLength="1189.52" waitingTime="34.00" waitingCount="2" stopTime="0.00" timeLoss="51.97" rerouteNo="0" devices="tripinfo_OD149_NV.1" vType="NV" speedFactor="1.00" vaporized=""/>
    <tripinfo id="OD374_NV.2" depart="86.00" departLane="right1E1_0" departPos="5.10" departSpeed="10.00" departDelay="0.03" arrival="179.00" arrivalLane="E3right3_0" arrivalPos="286.40" arrivalSpeed="12.68" duration="93.00" routeLength="1158.56" waitingTime="0.00" waitingCount="0" stopTime="0.00" timeLoss="8.26" rerouteNo="0" devices="tripinfo_OD374_NV.2" vType="NV" speedFactor="1.00" vaporized=""/>
    <tripinfo id="OD369_NV.2" depart="44.00" departLane="right1E1_0" departPos="5.10" departSpeed="10.00" departDelay="0.23" arrival="180.00" arrivalLane="E4top4_1" arrivalPos="286.40" arrivalSpeed="13.11" duration="136.00" routeLength="1476.73" waitingTime="15.00" waitingCount="1" stopTime="0.00" timeLoss="28.51" rerouteNo="0" devices="tripinfo_OD369_NV.2" vType="NV" speedFactor="1.00" vaporized=""/>
    <tripinfo id="OD372_NV.0" depart="57.00" departLane="right1E1_0" departPos="5.10" departSpeed="10.00" departDelay="0.58" arrival="180.00" arrivalLane="E0right0_2" arrivalPos="286.40" arrivalSpeed="13.61" duration="123.00" routeLength="889.52" waitingTime="44.00" waitingCount="2" stopTime="0.00" timeLoss="57.81" rerouteNo="0" devices="tripinfo_OD372_NV.0" vType="NV" speedFactor="1.00" vaporized=""/>
    <tripinfo id="OD161_NV.1" depart="110.00" departLane="left2A2_0" departPos="5.10" departSpeed="10.00" departDelay="2.36" arrival="182.00" arrivalLane="A1left1_0" arrivalPos="286.40" arrivalSpeed="13.38" duration="72.00" routeLength="858.56" waitingTime="0.00" waitingCount="0" stopTime="0.00" timeLoss="8.39" rerouteNo="0" devices="tripinfo_OD161_NV.1" vType="NV" speedFactor="1.00" vaporized=""/>
    <tripinfo id="OD83_RV.0" depart="35.00" departLane="right0E0_0" departPos="5.10" departSpeed="10.00" departDelay="1.70" arrival="183.00" arrivalLane="E4top4_1" arrivalPos="286.40" arrivalSpeed="13.86" duration="148.00" routeLength="1776.73" waitingTime="0.00" waitingCount="0" stopTime="0.00" timeLoss="18.57" rerouteNo="0" devices="tripinfo_OD83_RV.0" vType="RV" speedFactor="1.00" vaporized=""/>
    <tripinfo id="OD250_NV.0" depart="30.00" departLane="left3A3_0" departPos="5.10" departSpeed="10.00" departDelay="0.83" arrival="184.00" arrivalLane="A4left4_2" arrivalPos="286.40" arrivalSpeed="13.11" duration="154.00" routeLength="889.52" waitingTime="75.00" waitingCount="2" stopTime="0.00" timeLoss="88.25" rerouteNo="0" devices="tripinfo_OD250_NV.0" vType="NV" speedFactor="1.00" vaporized=""/>
    <tripinfo id="OD320_NV.1" depart="75.00" departLane="left4A4_0" departPos="5.10" departSpeed="10.00" departDelay="0.44" arrival="184.00" arrivalLane="A2left2_0" arrivalPos="286.40" arrivalSpeed="13.42" duration="109.00" routeLength="1158.56" waitingTime="8.00" waitingCount="1" stopTime="0.00" timeLoss="24.45" rerouteNo="0" devices="tripinfo_OD320_NV.1" vType="NV" speedFactor="1.00" vaporized=""/>
    <tripinfo id="OD130_NV.0" depart="83.00" departLane="left1A1_0" departPos="5.10" departSpeed="10.00" departDelay="0.31" arrival="186.00" arrivalLane="A2left2_2" arrivalPos="286.40" arrivalSpeed="12.72" duration="103.00" routeLength="889.52" waitingTime="29.00" waitingCount="1" stopTime="0.00" timeLoss="37.71" rerouteNo="0" devices="tripinfo_OD130_NV.0" vType="NV" speedFactor="1.00" vaporized=""/>