<?xml version="1.0" encoding="UTF-8"?>

<!-- generated on 2025-02-18 18:16:34 by Eclipse SUMO sumo Version 1.20.0
<configuration xmlns:xsi="http://www.w3.org/2001/XMLSchema-instance" xsi:noNamespaceSchemaLocation="http://sumo.dlr.de/xsd/sumoConfiguration.xsd">

    <input>
        <net-file value="./envs/5x5/5x5.net.xml"/>
        <route-files value="./envs/5x5/Demand_20.rou.xml"/>
    </input>

    <output>
        <tripinfo-output value="./online_train/5x5\online_train_SAC_multi_agents/tripinfo/tripinfo_ep147.xml"/>
    </output>

    <time>
        <begin value="0"/>
    </time>

    <processing>
        <time-to-teleport value="-1"/>
        <waiting-time-memory value="1800"/>
    </processing>

    <report>
        <no-step-log value="true"/>
    </report>

    <traci_server>
        <remote-port value="64323"/>
    </traci_server>

</configuration>
-->

<tripinfos xmlns:xsi="http://www.w3.org/2001/XMLSchema-instance" xsi:noNamespaceSchemaLocation="http://sumo.dlr.de/xsd/tripinfo_file.xsd">
    <tripinfo id="OD310_NV.0" depart="4.00" departLane="left4A4_0" departPos="5.10" departSpeed="10.00" departDelay="1.48" arrival="76.00" arrivalLane="A3left3_0" arrivalPos="286.40" arrivalSpeed="12.95" duration="72.00" routeLength="858.56" waitingTime="0.00" waitingCount="0" stopTime="0.00" timeLoss="8.52" rerouteNo="0" devices="tripinfo_OD310_NV.0" vType="NV" speedFactor="1.00" vaporized=""/>
    <tripinfo id="OD310_NV.1" depart="8.00" departLane="left4A4_0" departPos="5.10" departSpeed="10.00" departDelay="3.20" arrival="79.00" arrivalLane="A3left3_0" arrivalPos="286.40" arrivalSpeed="13.38" duration="71.00" routeLength="858.56" waitingTime="0.00" waitingCount="0" stopTime="0.00" timeLoss="7.70" rerouteNo="0" devices="tripinfo_OD310_NV.1" vType="NV" speedFactor="1.00" vaporized=""/>
    <tripinfo id="OD102_NV.0" depart="37.00" departLane="right4E4_0" departPos="5.10" departSpeed="10.00" departDelay="0.87" arrival="84.00" arrivalLane="E4top4_0" arrivalPos="286.40" arrivalSpeed="13.22" duration="47.00" routeLength="576.73" waitingTime="0.00" waitingCount="0" stopTime="0.00" timeLoss="4.31" rerouteNo="0" devices="tripinfo_OD102_NV.0" vType="NV" speedFactor="1.00" vaporized=""/>
    <tripinfo id="OD129_NV.0" depart="19.00" departLane="left1A1_0" departPos="5.10" departSpeed="10.00" departDelay="0.11" arrival="90.00" arrivalLane="A0left0_0" arrivalPos="286.40" arrivalSpeed="12.90" duration="71.00" routeLength="858.56" waitingTime="0.00" waitingCount="0" stopTime="0.00" timeLoss="7.59" rerouteNo="0" devices="tripinfo_OD129_NV.0" vType="NV" speedFactor="1.00" vaporized=""/>
    <tripinfo id="OD284_NV.0" depart="22.00" departLane="top4E4_0" departPos="5.10" departSpeed="10.00" departDelay="1.14" arrival="93.00" arrivalLane="D4top3_0" arrivalPos="286.40" arrivalSpeed="13.16" duration="71.00" routeLength="858.56" waitingTime="0.00" waitingCount="0" stopTime="0.00" timeLoss="7.97" rerouteNo="0" devices="tripinfo_OD284_NV.0" vType="NV" speedFactor="1.00" vaporized=""/>
    <tripinfo id="OD305_NV.0" depart="11.00" departLane="left4A4_0" departPos="5.10" departSpeed="10.00" departDelay="1.44" arrival="96.00" arrivalLane="A4top0_2" arrivalPos="286.40" arrivalSpeed="13.23" duration="85.00" routeLength="592.21" waitingTime="33.00" waitingCount="1" stopTime="0.00" timeLoss="40.96" rerouteNo="0" devices="tripinfo_OD305_NV.0" vType="NV" speedFactor="1.00" vaporized=""/>
    <tripinfo id="OD129_RV.0" depart="32.00" departLane="left1A1_0" departPos="5.10" departSpeed="10.00" departDelay="0.10" arrival="101.00" arrivalLane="A0left0_0" arrivalPos="286.40" arrivalSpeed="12.61" duration="69.00" routeLength="858.56" waitingTime="0.00" waitingCount="0" stopTime="0.00" timeLoss="6.14" rerouteNo="0" devices="tripinfo_OD129_RV.0" vType="RV" speedFactor="1.00" vaporized=""/>
    <tripinfo id="OD365_NV.0" depart="7.00" departLane="right1E1_0" departPos="5.10" departSpeed="10.00" departDelay="0.05" arrival="104.00" arrivalLane="D0bottom3_1" arrivalPos="286.40" arrivalSpeed="12.63" duration="97.00" routeLength="1192.21" waitingTime="1.00" waitingCount="1" stopTime="0.00" timeLoss="10.19" rerouteNo="0" devices="tripinfo_OD365_NV.0" vType="NV" speedFactor="1.00" vaporized=""/>
    <tripinfo id="OD244_NV.0" depart="9.00" departLane="top0A4_0" departPos="5.10" departSpeed="10.00" departDelay="1.64" arrival="105.00" arrivalLane="A2left2_0" arrivalPos="286.40" arrivalSpeed="12.45" duration="96.00" routeLength="1176.73" waitingTime="0.00" waitingCount="0" stopTime="0.00" timeLoss="10.29" rerouteNo="0" devices="tripinfo_OD244_NV.0" vType="NV" speedFactor="1.00" vaporized=""/>
    <tripinfo id="OD353_RV.0" depart="6.00" departLane="bottom2C0_0" departPos="5.10" departSpeed="10.00" departDelay="3.40" arrival="107.00" arrivalLane="E0right0_1" arrivalPos="286.40" arrivalSpeed="12.52" duration="101.00" routeLength="1176.73" waitingTime="1.00" waitingCount="1" stopTime="0.00" timeLoss="14.78" rerouteNo="0" devices="tripinfo_OD353_RV.0" vType="RV" speedFactor="1.00" vaporized=""/>
    <tripinfo id="OD310_NV.2" depart="38.00" departLane="left4A4_0" departPos="5.10" departSpeed="10.00" departDelay="0.76" arrival="108.00" arrivalLane="A3left3_0" arrivalPos="286.40" arrivalSpeed="12.96" duration="70.00" routeLength="858.56" waitingTime="0.00" waitingCount="0" stopTime="0.00" timeLoss="6.60" rerouteNo="0" devices="tripinfo_OD310_NV.2" vType="NV" speedFactor="1.00" vaporized=""/>
    <tripinfo id="OD354_NV.0" depart="10.00" departLane="bottom2C0_0" departPos="5.10" departSpeed="10.00" departDelay="0.22" arrival="110.00" arrivalLane="B0bottom1_2" arrivalPos="286.40" arrivalSpeed="13.16" duration="100.00" routeLength="889.52" waitingTime="24.00" waitingCount="1" stopTime="0.00" timeLoss="34.95" rerouteNo="0" devices="tripinfo_OD354_NV.0" vType="NV" speedFactor="1.00" vaporized=""/>
    <tripinfo id="OD176_NV.0" depart="40.00" departLane="top3D4_0" departPos="5.10" departSpeed="10.00" departDelay="0.16" arrival="111.00" arrivalLane="C4top2_0" arrivalPos="286.40" arrivalSpeed="13.49" duration="71.00" routeLength="858.56" waitingTime="0.00" waitingCount="0" stopTime="0.00" timeLoss="7.75" rerouteNo="0" devices="tripinfo_OD176_NV.0" vType="NV" speedFactor="1.00" vaporized=""/>
    <tripinfo id="OD65_RV.0" depart="48.00" departLane="bottom3D0_0" departPos="5.10" departSpeed="10.00" departDelay="1.05" arrival="119.00" arrivalLane="E0bottom4_0" arrivalPos="286.40" arrivalSpeed="13.08" duration="71.00" routeLength="858.56" waitingTime="0.00" waitingCount="0" stopTime="0.00" timeLoss="7.74" rerouteNo="0" devices="tripinfo_OD65_RV.0" vType="RV" speedFactor="1.00" vaporized=""/>
    <tripinfo id="OD50_NV.0" depart="49.00" departLane="right2E2_0" departPos="5.10" departSpeed="10.00" departDelay="0.93" arrival="120.00" arrivalLane="E3right3_0" arrivalPos="286.40" arrivalSpeed="12.52" duration="71.00" routeLength="858.56" waitingTime="0.00" waitingCount="0" stopTime="0.00" timeLoss="7.52" rerouteNo="0" devices="tripinfo_OD50_NV.0" vType="NV" speedFactor="1.00" vaporized=""/>
    <tripinfo id="OD320_NV.0" depart="28.00" departLane="left4A4_0" departPos="5.10" departSpeed="10.00" departDelay="1.49" arrival="122.00" arrivalLane="A2left2_0" arrivalPos="286.40" arrivalSpeed="13.17" duration="94.00" routeLength="1158.56" waitingTime="0.00" waitingCount="0" stopTime="0.00" timeLoss="9.25" rerouteNo="0" devices="tripinfo_OD320_NV.0" vType="NV" speedFactor="1.00" vaporized=""/>
    <tripinfo id="OD65_NV.0" depart="54.00" departLane="bottom3D0_0" departPos="5.10" departSpeed="10.00" departDelay="0.88" arrival="124.00" arrivalLane="E0bottom4_0" arrivalPos="286.40" arrivalSpeed="12.45" duration="70.00" routeLength="858.56" waitingTime="0.00" waitingCount="0" stopTime="0.00" timeLoss="6.35" rerouteNo="0" devices="tripinfo_OD65_NV.0" vType="NV" speedFactor="1.00" vaporized=""/>
    <tripinfo id="OD284_NV.1" depart="54.00" departLane="top4E4_0" departPos="5.10" departSpeed="10.00" departDelay="0.77" arrival="124.00" arrivalLane="D4top3_0" arrivalPos="286.40" arrivalSpeed="12.76" duration="70.00" routeLength="858.56" waitingTime="0.00" waitingCount="0" stopTime="0.00" timeLoss="6.60" rerouteNo="0" devices="tripinfo_OD284_NV.1" vType="NV" speedFactor="1.00" vaporized=""/>
    <tripinfo id="OD50_NV.1" depart="60.00" departLane="right2E2_0" departPos="5.10" departSpeed="10.00" departDelay="0.59" arrival="132.00" arrivalLane="E3right3_0" arrivalPos="286.40" arrivalSpeed="13.43" duration="72.00" routeLength="858.56" waitingTime="0.00" waitingCount="0" stopTime="0.00" timeLoss="8.42" rerouteNo="0" devices="tripinfo_OD50_NV.1" vType="NV" speedFactor="1.00" vaporized=""/>
    <tripinfo id="OD184_NV.0" depart="25.00" departLane="top3D4_0" departPos="5.10" departSpeed="10.00" departDelay="5.03" arrival="134.00" arrivalLane="B4top1_0" arrivalPos="286.40" arrivalSpeed="13.26" duration="109.00" routeLength="1158.56" waitingTime="8.00" waitingCount="1" stopTime="0.00" timeLoss="23.75" rerouteNo="0" devices="tripinfo_OD184_NV.0" vType="NV" speedFactor="1.00" vaporized=""/>
    <tripinfo id="OD184_RV.0" depart="29.00" departLane="top3D4_0" departPos="5.10" departSpeed="10.00" departDelay="1.79" arrival="136.00" arrivalLane="B4top1_0" arrivalPos="286.40" arrivalSpeed="13.70" duration="107.00" routeLength="1158.56" waitingTime="4.00" waitingCount="1" stopTime="0.00" timeLoss="21.34" rerouteNo="0" devices="tripinfo_OD184_RV.0" vType="RV" speedFactor="1.00" vaporized=""/>
    <tripinfo id="OD76_NV.0" depart="65.00" departLane="right0E0_0" departPos="5.10" departSpeed="10.00" departDelay="0.41" arrival="136.00" arrivalLane="E1right1_0" arrivalPos="286.40" arrivalSpeed="13.22" duration="71.00" routeLength="858.56" waitingTime="0.00" waitingCount="0" stopTime="0.00" timeLoss="7.87" rerouteNo="0" devices="tripinfo_OD76_NV.0" vType="NV" speedFactor="1.00" vaporized=""/>
    <tripinfo id="OD59_NV.0" depart="6.00" departLane="bottom3D0_0" departPos="5.10" departSpeed="10.00" departDelay="0.38" arrival="138.00" arrivalLane="C0bottom2_2" arrivalPos="286.40" arrivalSpeed="12.65" duration="132.00" routeLength="889.52" waitingTime="53.00" waitingCount="2" stopTime="0.00" timeLoss="66.65" rerouteNo="0" devices="tripinfo_OD59_NV.0" vType="NV" speedFactor="1.00" vaporized=""/>
    <tripinfo id="OD244_NV.1" depart="45.00" departLane="top0A4_0" departPos="5.10" departSpeed="10.00" departDelay="0.91" arrival="138.00" arrivalLane="A2left2_0" arrivalPos="286.40" arrivalSpeed="13.01" duration="93.00" routeLength="1176.73" waitingTime="0.00" waitingCount="0" stopTime="0.00" timeLoss="6.44" rerouteNo="0" devices="tripinfo_OD244_NV.1" vType="NV" speedFactor="1.00" vaporized=""/>
    <tripinfo id="OD291_NV.0" depart="3.00" departLane="top1B4_0" departPos="5.10" departSpeed="10.00" departDelay="0.51" arrival="141.00" arrivalLane="A3left3_1" arrivalPos="286.40" arrivalSpeed="12.58" duration="138.00" routeLength="1176.73" waitingTime="42.00" waitingCount="1" stopTime="0.00" timeLoss="52.68" rerouteNo="0" devices="tripinfo_OD291_NV.0" vType="NV" speedFactor="1.00" vaporized=""/>
    <tripinfo id="OD179_NV.0" depart="57.00" departLane="top3D4_0" departPos="5.10" departSpeed="10.00" departDelay="0.69" arrival="141.00" arrivalLane="E4top4_2" arrivalPos="286.40" arrivalSpeed="12.88" duration="84.00" routeLength="889.52" waitingTime="10.00" waitingCount="1" stopTime="0.00" timeLoss="18.57" rerouteNo="0" devices="tripinfo_OD179_NV.0" vType="NV" speedFactor="1.00" vaporized=""/>
    <tripinfo id="OD50_NV.2" depart="71.00" departLane="right2E2_0" departPos="5.10" departSpeed="10.00" departDelay="0.74" arrival="141.00" arrivalLane="E3right3_0" arrivalPos="286.40" arrivalSpeed="13.64" duration="70.00" routeLength="858.56" waitingTime="0.00" waitingCount="0" stopTime="0.00" timeLoss="6.70" rerouteNo="0" devices="tripinfo_OD50_NV.2" vType="NV" speedFactor="1.00" vaporized=""/>
    <tripinfo id="OD301_NV.0" depart="1.00" departLane="top1B4_0" departPos="5.10" departSpeed="10.00" departDelay="0.26" arrival="143.00" arrivalLane="A2left2_0" arrivalPos="286.40" arrivalSpeed="13.37" duration="142.00" routeLength="1455.87" waitingTime="20.00" waitingCount="1" stopTime="0.00" timeLoss="34.46" rerouteNo="0" devices="tripinfo_OD301_NV.0" vType="NV" speedFactor="1.00" vaporized=""/>
    <tripinfo id="OD179_NV.1" depart="75.00" departLane="top3D4_0" departPos="5.10" departSpeed="10.00" departDelay="0.77" arrival="146.00" arrivalLane="E4top4_2" arrivalPos="286.40" arrivalSpeed="12.66" duration="71.00" routeLength="889.52" waitingTime="0.00" waitingCount="0" stopTime="0.00" timeLoss="4.92" rerouteNo="0" devices="tripinfo_OD179_NV.1" vType="NV" speedFactor="1.00" vaporized=""/>
    <tripinfo id="OD176_NV.1" depart="76.00" departLane="top3D4_0" departPos="5.10" departSpeed="10.00" departDelay="1.17" arrival="146.00" arrivalLane="C4top2_0" arrivalPos="286.40" arrivalSpeed="13.58" duration="70.00" routeLength="858.56" waitingTime="0.00" waitingCount="0" stopTime="0.00" timeLoss="6.17" rerouteNo="0" devices="tripinfo_OD176_NV.1" vType="NV" speedFactor="1.00" vaporized=""/>
    <tripinfo id="OD374_NV.0" depart="12.00" departLane="right1E1_0" departPos="5.10" departSpeed="10.00" departDelay="2.10" arrival="148.00" arrivalLane="E3right3_0" arrivalPos="286.40" arrivalSpeed="12.75" duration="136.00" routeLength="1158.56" waitingTime="36.00" waitingCount="1" stopTime="0.00" timeLoss="50.99" rerouteNo="0" devices="tripinfo_OD374_NV.0" vType="NV" speedFactor="1.00" vaporized=""/>
    <tripinfo id="OD288_RV.0" depart="59.00" departLane="top1B4_0" departPos="5.10" departSpeed="10.00" departDelay="1.65" arrival="148.00" arrivalLane="A4left4_1" arrivalPos="286.40" arrivalSpeed="13.08" duration="89.00" routeLength="876.73" waitingTime="15.00" waitingCount="1" stopTime="0.00" timeLoss="25.03" rerouteNo="0" devices="tripinfo_OD288_RV.0" vType="RV" speedFactor="1.00" vaporized=""/>
    <tripinfo id="OD368_NV.0" depart="78.00" departLane="right1E1_0" departPos="5.10" departSpeed="10.00" departDelay="0.11" arrival="149.00" arrivalLane="E2right2_0" arrivalPos="286.40" arrivalSpeed="13.85" duration="71.00" routeLength="858.56" waitingTime="0.00" waitingCount="0" stopTime="0.00" timeLoss="7.54" rerouteNo="0" devices="tripinfo_OD368_NV.0" vType="NV" speedFactor="1.00" vaporized=""/>
    <tripinfo id="OD21_RV.0" depart="16.00" departLane="top2C4_0" departPos="5.10" departSpeed="10.00" departDelay="0.63" arrival="150.00" arrivalLane="A4left4_1" arrivalPos="286.40" arrivalSpeed="13.29" duration="134.00" routeLength="1176.73" waitingTime="34.00" waitingCount="1" stopTime="0.00" timeLoss="48.25" rerouteNo="0" devices="tripinfo_OD21_RV.0" vType="RV" speedFactor="1.00" vaporized=""/>
    <tripinfo id="OD113_NV.0" depart="35.00" departLane="right4E4_0" departPos="5.10" departSpeed="10.00" departDelay="0.56" arrival="150.00" arrivalLane="D4top3_0" arrivalPos="286.40" arrivalSpeed="12.99" duration="115.00" routeLength="876.73" waitingTime="39.00" waitingCount="1" stopTime="0.00" timeLoss="50.08" rerouteNo="0" devices="tripinfo_OD113_NV.0" vType="NV" speedFactor="1.00" vaporized=""/>
    <tripinfo id="OD131_NV.0" depart="80.00" departLane="left1A1_0" departPos="5.10" departSpeed="10.00" departDelay="0.33" arrival="150.00" arrivalLane="A0bottom0_1" arrivalPos="286.40" arrivalSpeed="12.70" duration="70.00" routeLength="876.73" waitingTime="0.00" waitingCount="0" stopTime="0.00" timeLoss="5.94" rerouteNo="0" devices="tripinfo_OD131_NV.0" vType="NV" speedFactor="1.00" vaporized=""/>
    <tripinfo id="OD45_NV.0" depart="6.00" departLane="right2E2_0" departPos="5.10" departSpeed="10.00" departDelay="0.70" arrival="152.00" arrivalLane="E4top4_1" arrivalPos="286.40" arrivalSpeed="12.98" duration="146.00" routeLength="1176.73" waitingTime="43.00" waitingCount="2" stopTime="0.00" timeLoss="60.16" rerouteNo="0" devices="tripinfo_OD45_NV.0" vType="NV" speedFactor="1.00" vaporized=""/>
    <tripinfo id="OD21_RV.1" depart="36.00" departLane="top2C4_0" departPos="5.10" departSpeed="10.00" departDelay="0.64" arrival="152.00" arrivalLane="A4left4_1" arrivalPos="286.40" arrivalSpeed="12.87" duration="116.00" routeLength="1176.73" waitingTime="15.00" waitingCount="1" stopTime="0.00" timeLoss="29.68" rerouteNo="0" devices="tripinfo_OD21_RV.1" vType="RV" speedFactor="1.00" vaporized=""/>
    <tripinfo id="OD169_RV.0" depart="7.00" departLane="left2A2_0" departPos="5.10" departSpeed="10.00" departDelay="0.60" arrival="153.00" arrivalLane="A0bottom0_1" arrivalPos="286.40" arrivalSpeed="13.28" duration="146.00" routeLength="1176.73" waitingTime="50.00" waitingCount="1" stopTime="0.00" timeLoss="60.11" rerouteNo="0" devices="tripinfo_OD169_RV.0" vType="RV" speedFactor="1.00" vaporized=""/>
    <tripinfo id="OD310_NV.3" depart="82.00" departLane="left4A4_0" departPos="5.10" departSpeed="10.00" departDelay="0.90" arrival="153.00" arrivalLane="A3left3_0" arrivalPos="286.40" arrivalSpeed="13.03" duration="71.00" routeLength="858.56" waitingTime="0.00" waitingCount="0" stopTime="0.00" timeLoss="8.06" rerouteNo="0" devices="tripinfo_OD310_NV.3" vType="NV" speedFactor="1.00" vaporized=""/>
    <tripinfo id="OD174_NV.0" depart="19.00" departLane="top3D4_0" departPos="5.10" departSpeed="10.00" departDelay="0.66" arrival="154.00" arrivalLane="A4left4_1" arrivalPos="286.40" arrivalSpeed="13.00" duration="135.00" routeLength="1476.73" waitingTime="11.00" waitingCount="1" stopTime="0.00" timeLoss="27.47" rerouteNo="0" devices="tripinfo_OD174_NV.0" vType="NV" speedFactor="1.00" vaporized=""/>
    <tripinfo id="OD7_NV.0" depart="77.00" departLane="right3E3_0" departPos="5.10" departSpeed="10.00" departDelay="0.10" arrival="154.00" arrivalLane="E4top4_1" arrivalPos="286.40" arrivalSpeed="13.12" duration="77.00" routeLength="876.73" waitingTime="3.00" waitingCount="1" stopTime="0.00" timeLoss="12.54" rerouteNo="0" devices="tripinfo_OD7_NV.0" vType="NV" speedFactor="1.00" vaporized=""/>
    <tripinfo id="OD169_NV.0" depart="17.00" departLane="left2A2_0" departPos="5.10" departSpeed="10.00" departDelay="0.59" arrival="155.00" arrivalLane="A0bottom0_1" arrivalPos="286.40" arrivalSpeed="13.54" duration="138.00" routeLength="1176.73" waitingTime="38.00" waitingCount="1" stopTime="0.00" timeLoss="51.89" rerouteNo="0" devices="tripinfo_OD169_NV.0" vType="NV" speedFactor="1.00" vaporized=""/>
    <tripinfo id="OD174_NV.1" depart="23.00" departLane="top3D4_0" departPos="5.10" departSpeed="10.00" departDelay="3.67" arrival="156.00" arrivalLane="A4left4_1" arrivalPos="286.40" arrivalSpeed="13.57" duration="133.00" routeLength="1476.73" waitingTime="8.00" waitingCount="1" stopTime="0.00" timeLoss="25.38" rerouteNo="0" devices="tripinfo_OD174_NV.1" vType="NV" speedFactor="1.00" vaporized=""/>
    <tripinfo id="OD374_NV.1" depart="60.00" departLane="right1E1_0" departPos="5.10" departSpeed="10.00" departDelay="0.36" arrival="156.00" arrivalLane="E3right3_0" arrivalPos="286.40" arrivalSpeed="13.53" duration="96.00" routeLength="1158.56" waitingTime="0.00" waitingCount="0" stopTime="0.00" timeLoss="10.83" rerouteNo="0" devices="tripinfo_OD374_NV.1" vType="NV" speedFactor="1.00" vaporized=""/>
    <tripinfo id="OD169_NV.1" depart="46.00" departLane="left2A2_0" departPos="5.10" departSpeed="10.00" departDelay="0.47" arrival="157.00" arrivalLane="A0bottom0_1" arrivalPos="286.40" arrivalSpeed="13.05" duration="111.00" routeLength="1176.73" waitingTime="11.00" waitingCount="1" stopTime="0.00" timeLoss="25.10" rerouteNo="0" devices="tripinfo_OD169_NV.1" vType="NV" speedFactor="1.00" vaporized=""/>
    <tripinfo id="OD14_NV.0" depart="90.00" departLane="right3E3_0" departPos="5.10" departSpeed="10.00" departDelay="0.85" arrival="160.00" arrivalLane="E4right4_0" arrivalPos="286.40" arrivalSpeed="13.43" duration="70.00" routeLength="858.56" waitingTime="0.00" waitingCount="0" stopTime="0.00" timeLoss="6.36" rerouteNo="0" devices="tripinfo_OD14_NV.0" vType="NV" speedFactor="1.00" vaporized=""/>
    <tripinfo id="OD257_RV.0" depart="12.00" departLane="left3A3_0" departPos="5.10" departSpeed="10.00" departDelay="1.82" arrival="164.00" arrivalLane="A1left1_0" arrivalPos="286.40" arrivalSpeed="13.60" duration="152.00" routeLength="1158.56" waitingTime="52.00" waitingCount="1" stopTime="0.00" timeLoss="66.52" rerouteNo="0" devices="tripinfo_OD257_RV.0" vType="RV" speedFactor="1.00" vaporized=""/>
    <tripinfo id="OD257_NV.0" depart="38.00" departLane="left3A3_0" departPos="5.10" departSpeed="10.00" departDelay="0.13" arrival="166.00" arrivalLane="A1left1_0" arrivalPos="286.40" arrivalSpeed="12.66" duration="128.00" routeLength="1158.56" waitingTime="30.00" waitingCount="1" stopTime="0.00" timeLoss="43.10" rerouteNo="0" devices="tripinfo_OD257_NV.0" vType="NV" speedFactor="1.00" vaporized=""/>
    <tripinfo id="OD246_NV.0" depart="2.00" departLane="top0A4_0" departPos="5.10" departSpeed="10.00" departDelay="0.05" arrival="169.00" arrivalLane="D4top3_2" arrivalPos="286.40" arrivalSpeed="13.53" duration="167.00" routeLength="1489.52" waitingTime="41.00" waitingCount="2" stopTime="0.00" timeLoss="58.07" rerouteNo="0" devices="tripinfo_OD246_NV.0" vType="NV" speedFactor="1.00" vaporized=""/>
    <tripinfo id="OD310_NV.4" depart="101.00" departLane="left4A4_0" departPos="5.10" departSpeed="10.00" departDelay="0.28" arrival="171.00" arrivalLane="A3left3_0" arrivalPos="286.40" arrivalSpeed="13.50" duration="70.00" routeLength="858.56" waitingTime="0.00" waitingCount="0" stopTime="0.00" timeLoss="6.58" rerouteNo="0" devices="tripinfo_OD310_NV.4" vType="NV" speedFactor="1.00" vaporized=""/>
    <tripinfo id="OD368_NV.1" depart="101.00" departLane="right1E1_0" departPos="5.10" departSpeed="10.00" departDelay="0.86" arrival="172.00" arrivalLane="E2right2_0" arrivalPos="286.40" arrivalSpeed="13.56" duration="71.00" routeLength="858.56" waitingTime="0.00" waitingCount="0" stopTime="0.00" timeLoss="7.66" rerouteNo="0" devices="tripinfo_OD368_NV.1" vType="NV" speedFactor="1.00" vaporized=""/>
    <tripinfo id="OD76_NV.1" depart="104.00" departLane="right0E0_0" departPos="5.10" departSpeed="10.00" departDelay="0.91" arrival="174.00" arrivalLane="E1right1_0" arrivalPos="286.40" arrivalSpeed="13.81" duration="70.00" routeLength="858.56" waitingTime="0.00" waitingCount="0" stopTime="0.00" timeLoss="7.01" rerouteNo="0" devices="tripinfo_OD76_NV.1" vType="NV" speedFactor="1.00" vaporized=""/>
    <tripinfo id="OD52_NV.0" depart="59.00" departLane="right2E2_0" departPos="5.10" departSpeed="10.00" departDelay="0.01" arrival="175.00" arrivalLane="E4right4_0" arrivalPos="286.40" arrivalSpeed="13.62" duration="116.00" routeLength="1158.56" waitingTime="18.00" waitingCount="1" stopTime="0.00" timeLoss="31.44" rerouteNo="0" devices="tripinfo_OD52_NV.0" vType="NV" speedFactor="1.00" vaporized=""/>
    <tripinfo id="OD216_NV.0" depart="71.00" departLane="bottom4E0_0" departPos="5.10" departSpeed="10.00" departDelay="0.90" arrival="175.00" arrivalLane="E2right2_0" arrivalPos="286.40" arrivalSpeed="13.81" duration="104.00" routeLength="1176.73" waitingTime="3.00" waitingCount="1" stopTime="0.00" timeLoss="18.06" rerouteNo="0" devices="tripinfo_OD216_NV.0" vType="NV" speedFactor="1.00" vaporized=""/>
    <tripinfo id="OD369_NV.0" depart="5.00" departLane="right1E1_0" departPos="5.10" departSpeed="10.00" departDelay="2.04" arrival="176.00" arrivalLane="E4top4_1" arrivalPos="286.40" arrivalSpeed="13.19" duration="171.00" routeLength="1476.73" waitingTime="42.00" waitingCount="2" stopTime="0.00" timeLoss="63.96" rerouteNo="0" devices="tripinfo_OD369_NV.0" vType="NV" speedFactor="1.00" vaporized=""/>
    <tripinfo id="OD206_RV.0" depart="10.00" departLane="bottom1B0_0" departPos="5.10" departSpeed="10.00" departDelay="0.48" arrival="177.00" arrivalLane="A2left2_2" arrivalPos="286.40" arrivalSpeed="12.60" duration="167.00" routeLength="1471.35" waitingTime="40.00" waitingCount="2" stopTime="0.00" timeLoss="58.59" rerouteNo="0" devices="tripinfo_OD206_RV.0" vType="RV" speedFactor="1.00" vaporized=""/>
    <tripinfo id="OD216_NV.1" depart="76.00" departLane="bottom4E0_0" departPos="5.10" departSpeed="10.00" departDelay="0.26" arrival="177.00" arrivalLane="E2right2_0" arrivalPos="286.40" arrivalSpeed="13.33" duration="101.00" routeLength="1176.73" waitingTime="1.00" waitingCount="1" stopTime="0.00" timeLoss="15.80" rerouteNo="0" devices="tripinfo_OD216_NV.1" vType="NV" speedFactor="1.00" vaporized=""/>
    <tripinfo id="OD192_NV.0" depart="106.00" departLane="bottom1B0_0" departPos="5.10" departSpeed="10.00" departDelay="0.31" arrival="177.00" arrivalLane="C0bottom2_0" arrivalPos="286.40" arrivalSpeed="13.50" duration="71.00" routeLength="858.56" waitingTime="0.00" waitingCount="0" stopTime="0.00" timeLoss="7.02" rerouteNo="0" devices="tripinfo_OD192_NV.0" vType="NV" speedFactor="1.00" vaporized=""/>
    <tripinfo id="OD84_NV.0" depart="130.00" departLane="right0E0_0" departPos="5.10" departSpeed="10.00" departDelay="0.30" arrival="177.00" arrivalLane="E0bottom4_2" arrivalPos="286.40" arrivalSpeed="13.12" duration="47.00" routeLength="592.21" waitingTime="0.00" waitingCount="0" stopTime="0.00" timeLoss="3.46" rerouteNo="0" devices="tripinfo_OD84_NV.0" vType="NV" speedFactor="1.00" vaporized=""/>
    <tripinfo id="OD369_NV.1" depart="26.00" departLane="right1E1_0" departPos="5.10" departSpeed="10.00" departDelay="0.50" arrival="178.00" arrivalLane="E4top4_1" arrivalPos="286.40" arrivalSpeed="13.41" duration="152.00" routeLength="1476.73" waitingTime="27.00" waitingCount="1" stopTime="0.00" timeLoss="44.72" rerouteNo="0" devices="tripinfo_OD369_NV.1" vType="NV" speedFactor="1.00" vaporized=""/>
    <tripinfo id="OD358_NV.0" depart="29.00" departLane="bottom2C0_0" departPos="5.10" departSpeed="10.00" departDelay="0.61" arrival="178.00" arrivalLane="A0left0_1" arrivalPos="286.40" arrivalSpeed="13.07" duration="149.00" routeLength="1192.21" waitingTime="44.00" waitingCount="2" stopTime="0.00" timeLoss="62.59" rerouteNo="0" devices="tripinfo_OD358_NV.0" vType="NV" speedFactor="1.00" vaporized=""/>
    <tripinfo id="OD149_NV.0" depart="7.00" departLane="left0A0_0" departPos="5.10" departSpeed="10.00" departDelay="0.02" arrival="179.00" arrivalLane="A2left2_2" arrivalPos="286.40" arrivalSpeed="13.34" duration="172.00" routeLength="1189.52" waitingTime="67.00" waitingCount="3" stopTime="0.00" timeLoss="84.39" rerouteNo="0" devices="tripinfo_OD149_NV.0" vType="NV" speedFactor="1.00" vaporized=""/>
    <tripinfo id="OD374_NV.2" depart="86.00" departLane="right1E1_0" departPos="5.10" departSpeed="10.00" departDelay="0.03" arrival="179.00" arrivalLane="E3right3_0" arrivalPos="286.40" arrivalSpeed="12.63" duration="93.00" routeLength="1158.56" waitingTime="0.00" waitingCount="0" stopTime="0.00" timeLoss="7.84" rerouteNo="0" devices="tripinfo_OD374_NV.2" vType="NV" speedFactor="1.00" vaporized=""/>
    <tripinfo id="OD161_NV.0" depart="108.00" departLane="left2A2_0" departPos="5.10" departSpeed="10.00" departDelay="0.85" arrival="179.00" arrivalLane="A1left1_0" arrivalPos="286.40" arrivalSpeed="13.61" duration="71.00" routeLength="858.56" waitingTime="0.00" waitingCount="0" stopTime="0.00" timeLoss="7.53" rerouteNo="0" devices="tripinfo_OD161_NV.0" vType="NV" speedFactor="1.00" vaporized=""/>
    <tripinfo id="OD369_NV.2" depart="44.00" departLane="right1E1_0" departPos="5.10" departSpeed="10.00" departDelay="0.23" arrival="180.00" arrivalLane="E4top4_1" arrivalPos="286.40" arrivalSpeed="13.25" duration="136.00" routeLength="1476.73" waitingTime="9.00" waitingCount="1" stopTime="0.00" timeLoss="28.69" rerouteNo="0" devices="tripinfo_OD369_NV.2" vType="NV" speedFactor="1.00" vaporized=""/>
    <tripinfo id="OD320_NV.1" depart="75.00" departLane="left4A4_0" departPos="5.10" departSpeed="10.00" departDelay="0.44" arrival="180.00" arrivalLane="A2left2_0" arrivalPos="286.40" arrivalSpeed="12.98" duration="105.00" routeLength="1158.56" waitingTime="4.00" waitingCount="1" stopTime="0.00" timeLoss="19.09" rerouteNo="0" devices="tripinfo_OD320_NV.1" vType="NV" speedFactor="1.00" vaporized=""/>
    <tripinfo id="OD148_RV.0" depart="18.00" departLane="left0A0_0" departPos="5.10" departSpeed="10.00" departDelay="0.00" arrival="181.00" arrivalLane="A0left0_1" arrivalPos="286.40" arrivalSpeed="13.12" duration="163.00" routeLength="1737.70" waitingTime="15.00" waitingCount="1" stopTime="0.00" timeLoss="35.04" rerouteNo="0" devices="tripinfo_OD148_RV.0" vType="RV" speedFactor="1.00" vaporized=""/>
    <tripinfo id="OD149_NV.1" depart="40.00" departLane="left0A0_0" departPos="5.10" departSpeed="10.00" departDelay="0.33" arrival="181.00" arrivalLane="A2left2_2" arrivalPos="286.40" arrivalSpeed="12.87" duration="141.00" routeLength="1189.52" waitingTime="34.00" waitingCount="2" stopTime="0.00" timeLoss="53.39" rerouteNo="0" devices="tripinfo_OD149_NV.1" vType="NV" speedFactor="1.00" vaporized=""/>
    <tripinfo id="OD83_RV.0" depart="35.00" departLane="right0E0_0" departPos="5.10" departSpeed="10.00" departDelay="1.70" arrival="182.00" arrivalLane="E4top4_1" arrivalPos="286.40" arrivalSpeed="13.64" duration="147.00" routeLength="1776.73" waitingTime="0.00" waitingCount="0" stopTime="0.00" timeLoss="17.93" rerouteNo="0" devices="tripinfo_OD83_RV.0" vType="RV" speedFactor="1.00" vaporized=""/>
    <tripinfo id="OD82_NV.0" depart="88.00" departLane="right0E0_0" departPos="5.10" departSpeed="10.00" departDelay="0.00" arrival="182.00" arrivalLane="E2right2_0" arrivalPos="286.40" arrivalSpeed="13.32" duration="94.00" routeLength="1158.56" waitingTime="0.00" waitingCount="0" stopTime="0.00" timeLoss="8.37" rerouteNo="0" devices="tripinfo_OD82_NV.0" vType="NV" speedFactor="1.00" vaporized=""/>