<?xml version="1.0" encoding="UTF-8"?>

<!-- generated on 2025-02-18 00:52:58 by Eclipse SUMO sumo Version 1.20.0
<configuration xmlns:xsi="http://www.w3.org/2001/XMLSchema-instance" xsi:noNamespaceSchemaLocation="http://sumo.dlr.de/xsd/sumoConfiguration.xsd">

    <input>
        <net-file value="./envs/5x5/5x5.net.xml"/>
        <route-files value="./envs/5x5/Demand_20.rou.xml"/>
    </input>

    <output>
        <tripinfo-output value="./online_train/5x5\online_train_SAC_multi_agents/tripinfo/tripinfo_ep66.xml"/>
    </output>

    <time>
        <begin value="0"/>
    </time>

    <processing>
        <time-to-teleport value="-1"/>
        <waiting-time-memory value="1800"/>
    </processing>

    <report>
        <no-step-log value="true"/>
    </report>

    <traci_server>
        <remote-port value="55090"/>
    </traci_server>

</configuration>
-->

<tripinfos xmlns:xsi="http://www.w3.org/2001/XMLSchema-instance" xsi:noNamespaceSchemaLocation="http://sumo.dlr.de/xsd/tripinfo_file.xsd">
    <tripinfo id="OD310_NV.0" depart="4.00" departLane="left4A4_0" departPos="5.10" departSpeed="10.00" departDelay="1.48" arrival="76.00" arrivalLane="A3left3_0" arrivalPos="286.40" arrivalSpeed="13.31" duration="72.00" routeLength="858.56" waitingTime="0.00" waitingCount="0" stopTime="0.00" timeLoss="7.33" rerouteNo="0" devices="tripinfo_OD310_NV.0" vType="NV" speedFactor="1.00" vaporized=""/>
    <tripinfo id="OD310_NV.1" depart="8.00" departLane="left4A4_0" departPos="5.10" departSpeed="10.00" departDelay="3.20" arrival="78.00" arrivalLane="A3left3_0" arrivalPos="286.40" arrivalSpeed="13.02" duration="70.00" routeLength="858.56" waitingTime="0.00" waitingCount="0" stopTime="0.00" timeLoss="7.26" rerouteNo="0" devices="tripinfo_OD310_NV.1" vType="NV" speedFactor="1.00" vaporized=""/>
    <tripinfo id="OD102_NV.0" depart="37.00" departLane="right4E4_0" departPos="5.10" departSpeed="10.00" departDelay="0.87" arrival="84.00" arrivalLane="E4top4_0" arrivalPos="286.40" arrivalSpeed="13.47" duration="47.00" routeLength="576.73" waitingTime="0.00" waitingCount="0" stopTime="0.00" timeLoss="4.62" rerouteNo="0" devices="tripinfo_OD102_NV.0" vType="NV" speedFactor="1.00" vaporized=""/>
    <tripinfo id="OD129_NV.0" depart="19.00" departLane="left1A1_0" departPos="5.10" departSpeed="10.00" departDelay="0.11" arrival="89.00" arrivalLane="A0left0_0" arrivalPos="286.40" arrivalSpeed="13.59" duration="70.00" routeLength="858.56" waitingTime="0.00" waitingCount="0" stopTime="0.00" timeLoss="6.68" rerouteNo="0" devices="tripinfo_OD129_NV.0" vType="NV" speedFactor="1.00" vaporized=""/>
    <tripinfo id="OD284_NV.0" depart="22.00" departLane="top4E4_0" departPos="5.10" departSpeed="10.00" departDelay="1.14" arrival="93.00" arrivalLane="D4top3_0" arrivalPos="286.40" arrivalSpeed="12.82" duration="71.00" routeLength="858.56" waitingTime="0.00" waitingCount="0" stopTime="0.00" timeLoss="8.06" rerouteNo="0" devices="tripinfo_OD284_NV.0" vType="NV" speedFactor="1.00" vaporized=""/>
    <tripinfo id="OD305_NV.0" depart="11.00" departLane="left4A4_0" departPos="5.10" departSpeed="10.00" departDelay="1.44" arrival="96.00" arrivalLane="A4top0_2" arrivalPos="286.40" arrivalSpeed="12.64" duration="85.00" routeLength="592.21" waitingTime="33.00" waitingCount="1" stopTime="0.00" timeLoss="41.23" rerouteNo="0" devices="tripinfo_OD305_NV.0" vType="NV" speedFactor="1.00" vaporized=""/>
    <tripinfo id="OD129_RV.0" depart="32.00" departLane="left1A1_0" departPos="5.10" departSpeed="10.00" departDelay="0.10" arrival="102.00" arrivalLane="A0left0_0" arrivalPos="286.40" arrivalSpeed="12.57" duration="70.00" routeLength="858.56" waitingTime="0.00" waitingCount="0" stopTime="0.00" timeLoss="6.65" rerouteNo="0" devices="tripinfo_OD129_RV.0" vType="RV" speedFactor="1.00" vaporized=""/>
    <tripinfo id="OD244_NV.0" depart="9.00" departLane="top0A4_0" departPos="5.10" departSpeed="10.00" departDelay="1.64" arrival="105.00" arrivalLane="A2left2_0" arrivalPos="286.40" arrivalSpeed="12.98" duration="96.00" routeLength="1176.73" waitingTime="0.00" waitingCount="0" stopTime="0.00" timeLoss="10.21" rerouteNo="0" devices="tripinfo_OD244_NV.0" vType="NV" speedFactor="1.00" vaporized=""/>
    <tripinfo id="OD310_NV.2" depart="38.00" departLane="left4A4_0" departPos="5.10" departSpeed="10.00" departDelay="0.76" arrival="108.00" arrivalLane="A3left3_0" arrivalPos="286.40" arrivalSpeed="13.38" duration="70.00" routeLength="858.56" waitingTime="0.00" waitingCount="0" stopTime="0.00" timeLoss="6.57" rerouteNo="0" devices="tripinfo_OD310_NV.2" vType="NV" speedFactor="1.00" vaporized=""/>
    <tripinfo id="OD176_NV.0" depart="40.00" departLane="top3D4_0" departPos="5.10" departSpeed="10.00" departDelay="0.16" arrival="111.00" arrivalLane="C4top2_0" arrivalPos="286.40" arrivalSpeed="13.71" duration="71.00" routeLength="858.56" waitingTime="0.00" waitingCount="0" stopTime="0.00" timeLoss="7.67" rerouteNo="0" devices="tripinfo_OD176_NV.0" vType="NV" speedFactor="1.00" vaporized=""/>
    <tripinfo id="OD291_NV.0" depart="3.00" departLane="top1B4_0" departPos="5.10" departSpeed="10.00" departDelay="0.51" arrival="116.00" arrivalLane="A3left3_1" arrivalPos="286.40" arrivalSpeed="12.88" duration="113.00" routeLength="1176.73" waitingTime="18.00" waitingCount="1" stopTime="0.00" timeLoss="27.75" rerouteNo="0" devices="tripinfo_OD291_NV.0" vType="NV" speedFactor="1.00" vaporized=""/>
    <tripinfo id="OD353_RV.0" depart="6.00" departLane="bottom2C0_0" departPos="5.10" departSpeed="10.00" departDelay="3.40" arrival="117.00" arrivalLane="E0right0_1" arrivalPos="286.40" arrivalSpeed="13.88" duration="111.00" routeLength="1176.73" waitingTime="13.00" waitingCount="1" stopTime="0.00" timeLoss="24.78" rerouteNo="0" devices="tripinfo_OD353_RV.0" vType="RV" speedFactor="1.00" vaporized=""/>
    <tripinfo id="OD169_RV.0" depart="7.00" departLane="left2A2_0" departPos="5.10" departSpeed="10.00" departDelay="0.60" arrival="119.00" arrivalLane="A0bottom0_1" arrivalPos="286.40" arrivalSpeed="12.69" duration="112.00" routeLength="1176.73" waitingTime="14.00" waitingCount="1" stopTime="0.00" timeLoss="26.33" rerouteNo="0" devices="tripinfo_OD169_RV.0" vType="RV" speedFactor="1.00" vaporized=""/>
    <tripinfo id="OD65_RV.0" depart="48.00" departLane="bottom3D0_0" departPos="5.10" departSpeed="10.00" departDelay="1.05" arrival="119.00" arrivalLane="E0bottom4_0" arrivalPos="286.40" arrivalSpeed="13.08" duration="71.00" routeLength="858.56" waitingTime="0.00" waitingCount="0" stopTime="0.00" timeLoss="7.95" rerouteNo="0" devices="tripinfo_OD65_RV.0" vType="RV" speedFactor="1.00" vaporized=""/>
    <tripinfo id="OD50_NV.0" depart="49.00" departLane="right2E2_0" departPos="5.10" departSpeed="10.00" departDelay="0.93" arrival="119.00" arrivalLane="E3right3_0" arrivalPos="286.40" arrivalSpeed="12.78" duration="70.00" routeLength="858.56" waitingTime="0.00" waitingCount="0" stopTime="0.00" timeLoss="6.48" rerouteNo="0" devices="tripinfo_OD50_NV.0" vType="NV" speedFactor="1.00" vaporized=""/>
    <tripinfo id="OD169_NV.0" depart="17.00" departLane="left2A2_0" departPos="5.10" departSpeed="10.00" departDelay="0.59" arrival="121.00" arrivalLane="A0bottom0_1" arrivalPos="286.40" arrivalSpeed="12.90" duration="104.00" routeLength="1176.73" waitingTime="3.00" waitingCount="1" stopTime="0.00" timeLoss="17.57" rerouteNo="0" devices="tripinfo_OD169_NV.0" vType="NV" speedFactor="1.00" vaporized=""/>
    <tripinfo id="OD320_NV.0" depart="28.00" departLane="left4A4_0" departPos="5.10" departSpeed="10.00" departDelay="1.49" arrival="123.00" arrivalLane="A2left2_0" arrivalPos="286.40" arrivalSpeed="13.62" duration="95.00" routeLength="1158.56" waitingTime="0.00" waitingCount="0" stopTime="0.00" timeLoss="9.45" rerouteNo="0" devices="tripinfo_OD320_NV.0" vType="NV" speedFactor="1.00" vaporized=""/>
    <tripinfo id="OD65_NV.0" depart="54.00" departLane="bottom3D0_0" departPos="5.10" departSpeed="10.00" departDelay="0.88" arrival="124.00" arrivalLane="E0bottom4_0" arrivalPos="286.40" arrivalSpeed="12.45" duration="70.00" routeLength="858.56" waitingTime="0.00" waitingCount="0" stopTime="0.00" timeLoss="6.77" rerouteNo="0" devices="tripinfo_OD65_NV.0" vType="NV" speedFactor="1.00" vaporized=""/>
    <tripinfo id="OD354_NV.0" depart="10.00" departLane="bottom2C0_0" departPos="5.10" departSpeed="10.00" departDelay="0.22" arrival="125.00" arrivalLane="B0bottom1_2" arrivalPos="286.40" arrivalSpeed="12.73" duration="115.00" routeLength="889.52" waitingTime="36.00" waitingCount="2" stopTime="0.00" timeLoss="49.62" rerouteNo="0" devices="tripinfo_OD354_NV.0" vType="NV" speedFactor="1.00" vaporized=""/>
    <tripinfo id="OD284_NV.1" depart="54.00" departLane="top4E4_0" departPos="5.10" departSpeed="10.00" departDelay="0.77" arrival="125.00" arrivalLane="D4top3_0" arrivalPos="286.40" arrivalSpeed="13.11" duration="71.00" routeLength="858.56" waitingTime="0.00" waitingCount="0" stopTime="0.00" timeLoss="7.73" rerouteNo="0" devices="tripinfo_OD284_NV.1" vType="NV" speedFactor="1.00" vaporized=""/>
    <tripinfo id="OD50_NV.1" depart="60.00" departLane="right2E2_0" departPos="5.10" departSpeed="10.00" departDelay="0.59" arrival="132.00" arrivalLane="E3right3_0" arrivalPos="286.40" arrivalSpeed="13.71" duration="72.00" routeLength="858.56" waitingTime="0.00" waitingCount="0" stopTime="0.00" timeLoss="7.88" rerouteNo="0" devices="tripinfo_OD50_NV.1" vType="NV" speedFactor="1.00" vaporized=""/>
    <tripinfo id="OD76_NV.0" depart="65.00" departLane="right0E0_0" departPos="5.10" departSpeed="10.00" departDelay="0.41" arrival="135.00" arrivalLane="E1right1_0" arrivalPos="286.40" arrivalSpeed="12.47" duration="70.00" routeLength="858.56" waitingTime="0.00" waitingCount="0" stopTime="0.00" timeLoss="6.60" rerouteNo="0" devices="tripinfo_OD76_NV.0" vType="NV" speedFactor="1.00" vaporized=""/>
    <tripinfo id="OD184_NV.0" depart="25.00" departLane="top3D4_0" departPos="5.10" departSpeed="10.00" departDelay="5.03" arrival="136.00" arrivalLane="B4top1_0" arrivalPos="286.40" arrivalSpeed="12.90" duration="111.00" routeLength="1158.56" waitingTime="9.00" waitingCount="1" stopTime="0.00" timeLoss="25.62" rerouteNo="0" devices="tripinfo_OD184_NV.0" vType="NV" speedFactor="1.00" vaporized=""/>
    <tripinfo id="OD38_NV.0" depart="8.00" departLane="right2E2_0" departPos="5.10" departSpeed="10.00" departDelay="1.45" arrival="137.00" arrivalLane="E1right1_2" arrivalPos="286.40" arrivalSpeed="12.70" duration="129.00" routeLength="889.52" waitingTime="53.00" waitingCount="1" stopTime="0.00" timeLoss="62.87" rerouteNo="0" devices="tripinfo_OD38_NV.0" vType="NV" speedFactor="1.00" vaporized=""/>
    <tripinfo id="OD184_RV.0" depart="29.00" departLane="top3D4_0" departPos="5.10" departSpeed="10.00" departDelay="1.79" arrival="139.00" arrivalLane="B4top1_0" arrivalPos="286.40" arrivalSpeed="13.35" duration="110.00" routeLength="1158.56" waitingTime="7.00" waitingCount="1" stopTime="0.00" timeLoss="23.84" rerouteNo="0" devices="tripinfo_OD184_RV.0" vType="RV" speedFactor="1.00" vaporized=""/>
    <tripinfo id="OD38_NV.1" depart="64.00" departLane="right2E2_0" departPos="5.10" departSpeed="10.00" departDelay="0.00" arrival="139.00" arrivalLane="E1right1_2" arrivalPos="286.40" arrivalSpeed="13.04" duration="75.00" routeLength="889.52" waitingTime="1.00" waitingCount="1" stopTime="0.00" timeLoss="9.24" rerouteNo="0" devices="tripinfo_OD38_NV.1" vType="NV" speedFactor="1.00" vaporized=""/>
    <tripinfo id="OD59_NV.0" depart="6.00" departLane="bottom3D0_0" departPos="5.10" departSpeed="10.00" departDelay="0.38" arrival="140.00" arrivalLane="C0bottom2_2" arrivalPos="286.40" arrivalSpeed="12.55" duration="134.00" routeLength="889.52" waitingTime="56.00" waitingCount="2" stopTime="0.00" timeLoss="68.48" rerouteNo="0" devices="tripinfo_OD59_NV.0" vType="NV" speedFactor="1.00" vaporized=""/>
    <tripinfo id="OD179_NV.0" depart="57.00" departLane="top3D4_0" departPos="5.10" departSpeed="10.00" departDelay="0.69" arrival="141.00" arrivalLane="E4top4_2" arrivalPos="286.40" arrivalSpeed="13.73" duration="84.00" routeLength="889.52" waitingTime="7.00" waitingCount="1" stopTime="0.00" timeLoss="18.19" rerouteNo="0" devices="tripinfo_OD179_NV.0" vType="NV" speedFactor="1.00" vaporized=""/>
    <tripinfo id="OD370_NV.0" depart="29.00" departLane="right1E1_0" departPos="5.10" departSpeed="10.00" departDelay="0.78" arrival="142.00" arrivalLane="E0bottom4_1" arrivalPos="286.40" arrivalSpeed="13.62" duration="113.00" routeLength="892.21" waitingTime="35.00" waitingCount="2" stopTime="0.00" timeLoss="47.97" rerouteNo="0" devices="tripinfo_OD370_NV.0" vType="NV" speedFactor="1.00" vaporized=""/>
    <tripinfo id="OD50_NV.2" depart="71.00" departLane="right2E2_0" departPos="5.10" departSpeed="10.00" departDelay="0.74" arrival="142.00" arrivalLane="E3right3_0" arrivalPos="286.40" arrivalSpeed="12.68" duration="71.00" routeLength="858.56" waitingTime="0.00" waitingCount="0" stopTime="0.00" timeLoss="7.67" rerouteNo="0" devices="tripinfo_OD50_NV.2" vType="NV" speedFactor="1.00" vaporized=""/>
    <tripinfo id="OD370_NV.1" depart="31.00" departLane="right1E1_0" departPos="5.10" departSpeed="10.00" departDelay="1.52" arrival="145.00" arrivalLane="E0bottom4_1" arrivalPos="286.40" arrivalSpeed="13.66" duration="114.00" routeLength="892.21" waitingTime="32.00" waitingCount="1" stopTime="0.00" timeLoss="48.49" rerouteNo="0" devices="tripinfo_OD370_NV.1" vType="NV" speedFactor="1.00" vaporized=""/>
    <tripinfo id="OD179_NV.1" depart="75.00" departLane="top3D4_0" departPos="5.10" departSpeed="10.00" departDelay="0.77" arrival="145.00" arrivalLane="E4top4_2" arrivalPos="286.40" arrivalSpeed="13.39" duration="70.00" routeLength="889.52" waitingTime="0.00" waitingCount="0" stopTime="0.00" timeLoss="4.65" rerouteNo="0" devices="tripinfo_OD179_NV.1" vType="NV" speedFactor="1.00" vaporized=""/>
    <tripinfo id="OD257_RV.0" depart="12.00" departLane="left3A3_0" departPos="5.10" departSpeed="10.00" departDelay="1.82" arrival="146.00" arrivalLane="A1left1_0" arrivalPos="286.40" arrivalSpeed="13.77" duration="134.00" routeLength="1158.56" waitingTime="35.00" waitingCount="1" stopTime="0.00" timeLoss="47.67" rerouteNo="0" devices="tripinfo_OD257_RV.0" vType="RV" speedFactor="1.00" vaporized=""/>
    <tripinfo id="OD244_NV.1" depart="45.00" departLane="top0A4_0" departPos="5.10" departSpeed="10.00" departDelay="0.91" arrival="146.00" arrivalLane="A2left2_0" arrivalPos="286.40" arrivalSpeed="12.64" duration="101.00" routeLength="1176.73" waitingTime="4.00" waitingCount="1" stopTime="0.00" timeLoss="14.88" rerouteNo="0" devices="tripinfo_OD244_NV.1" vType="NV" speedFactor="1.00" vaporized=""/>
    <tripinfo id="OD288_RV.0" depart="59.00" departLane="top1B4_0" departPos="5.10" departSpeed="10.00" departDelay="1.65" arrival="147.00" arrivalLane="A4left4_1" arrivalPos="286.40" arrivalSpeed="13.68" duration="88.00" routeLength="876.73" waitingTime="14.00" waitingCount="1" stopTime="0.00" timeLoss="24.15" rerouteNo="0" devices="tripinfo_OD288_RV.0" vType="RV" speedFactor="1.00" vaporized=""/>
    <tripinfo id="OD176_NV.1" depart="76.00" departLane="top3D4_0" departPos="5.10" departSpeed="10.00" departDelay="1.17" arrival="147.00" arrivalLane="C4top2_0" arrivalPos="286.40" arrivalSpeed="12.95" duration="71.00" routeLength="858.56" waitingTime="0.00" waitingCount="0" stopTime="0.00" timeLoss="7.59" rerouteNo="0" devices="tripinfo_OD176_NV.1" vType="NV" speedFactor="1.00" vaporized=""/>
    <tripinfo id="OD301_NV.0" depart="1.00" departLane="top1B4_0" departPos="5.10" departSpeed="10.00" departDelay="0.26" arrival="148.00" arrivalLane="A2left2_0" arrivalPos="286.40" arrivalSpeed="13.85" duration="147.00" routeLength="1455.87" waitingTime="20.00" waitingCount="1" stopTime="0.00" timeLoss="39.94" rerouteNo="0" devices="tripinfo_OD301_NV.0" vType="NV" speedFactor="1.00" vaporized=""/>
    <tripinfo id="OD257_NV.0" depart="38.00" departLane="left3A3_0" departPos="5.10" departSpeed="10.00" departDelay="0.13" arrival="148.00" arrivalLane="A1left1_0" arrivalPos="286.40" arrivalSpeed="13.56" duration="110.00" routeLength="1158.56" waitingTime="10.00" waitingCount="1" stopTime="0.00" timeLoss="25.21" rerouteNo="0" devices="tripinfo_OD257_NV.0" vType="NV" speedFactor="1.00" vaporized=""/>
    <tripinfo id="OD368_NV.0" depart="78.00" departLane="right1E1_0" departPos="5.10" departSpeed="10.00" departDelay="0.11" arrival="148.00" arrivalLane="E2right2_0" arrivalPos="286.40" arrivalSpeed="12.81" duration="70.00" routeLength="858.56" waitingTime="0.00" waitingCount="0" stopTime="0.00" timeLoss="6.67" rerouteNo="0" devices="tripinfo_OD368_NV.0" vType="NV" speedFactor="1.00" vaporized=""/>
    <tripinfo id="OD113_NV.0" depart="35.00" departLane="right4E4_0" departPos="5.10" departSpeed="10.00" departDelay="0.56" arrival="150.00" arrivalLane="D4top3_0" arrivalPos="286.40" arrivalSpeed="12.99" duration="115.00" routeLength="876.73" waitingTime="39.00" waitingCount="1" stopTime="0.00" timeLoss="50.46" rerouteNo="0" devices="tripinfo_OD113_NV.0" vType="NV" speedFactor="1.00" vaporized=""/>
    <tripinfo id="OD349_NV.0" depart="4.00" departLane="bottom2C0_0" departPos="5.10" departSpeed="10.00" departDelay="1.63" arrival="151.00" arrivalLane="E2right2_0" arrivalPos="286.40" arrivalSpeed="13.32" duration="147.00" routeLength="1755.87" waitingTime="1.00" waitingCount="1" stopTime="0.00" timeLoss="18.59" rerouteNo="0" devices="tripinfo_OD349_NV.0" vType="NV" speedFactor="1.00" vaporized=""/>
    <tripinfo id="OD45_NV.0" depart="6.00" departLane="right2E2_0" departPos="5.10" departSpeed="10.00" departDelay="0.70" arrival="151.00" arrivalLane="E4top4_1" arrivalPos="286.40" arrivalSpeed="12.53" duration="145.00" routeLength="1176.73" waitingTime="48.00" waitingCount="1" stopTime="0.00" timeLoss="59.46" rerouteNo="0" devices="tripinfo_OD45_NV.0" vType="NV" speedFactor="1.00" vaporized=""/>
    <tripinfo id="OD52_NV.0" depart="59.00" departLane="right2E2_0" departPos="5.10" departSpeed="10.00" departDelay="0.01" arrival="152.00" arrivalLane="E4right4_0" arrivalPos="286.40" arrivalSpeed="12.57" duration="93.00" routeLength="1158.56" waitingTime="0.00" waitingCount="0" stopTime="0.00" timeLoss="8.10" rerouteNo="0" devices="tripinfo_OD52_NV.0" vType="NV" speedFactor="1.00" vaporized=""/>
    <tripinfo id="OD7_NV.0" depart="77.00" departLane="right3E3_0" departPos="5.10" departSpeed="10.00" departDelay="0.10" arrival="153.00" arrivalLane="E4top4_1" arrivalPos="286.40" arrivalSpeed="13.79" duration="76.00" routeLength="876.73" waitingTime="1.00" waitingCount="1" stopTime="0.00" timeLoss="11.67" rerouteNo="0" devices="tripinfo_OD7_NV.0" vType="NV" speedFactor="1.00" vaporized=""/>
    <tripinfo id="OD310_NV.3" depart="82.00" departLane="left4A4_0" departPos="5.10" departSpeed="10.00" departDelay="0.90" arrival="153.00" arrivalLane="A3left3_0" arrivalPos="286.40" arrivalSpeed="12.52" duration="71.00" routeLength="858.56" waitingTime="0.00" waitingCount="0" stopTime="0.00" timeLoss="7.33" rerouteNo="0" devices="tripinfo_OD310_NV.3" vType="NV" speedFactor="1.00" vaporized=""/>
    <tripinfo id="OD21_RV.0" depart="16.00" departLane="top2C4_0" departPos="5.10" departSpeed="10.00" departDelay="0.63" arrival="155.00" arrivalLane="A4left4_1" arrivalPos="286.40" arrivalSpeed="12.69" duration="139.00" routeLength="1176.73" waitingTime="41.00" waitingCount="1" stopTime="0.00" timeLoss="52.92" rerouteNo="0" devices="tripinfo_OD21_RV.0" vType="RV" speedFactor="1.00" vaporized=""/>
    <tripinfo id="OD21_RV.1" depart="36.00" departLane="top2C4_0" departPos="5.10" departSpeed="10.00" departDelay="0.64" arrival="156.00" arrivalLane="A4left4_1" arrivalPos="286.40" arrivalSpeed="13.00" duration="120.00" routeLength="1176.73" waitingTime="24.00" waitingCount="1" stopTime="0.00" timeLoss="34.22" rerouteNo="0" devices="tripinfo_OD21_RV.1" vType="RV" speedFactor="1.00" vaporized=""/>
    <tripinfo id="OD131_NV.0" depart="80.00" departLane="left1A1_0" departPos="5.10" departSpeed="10.00" departDelay="0.33" arrival="158.00" arrivalLane="A0bottom0_1" arrivalPos="286.40" arrivalSpeed="12.64" duration="78.00" routeLength="876.73" waitingTime="5.00" waitingCount="1" stopTime="0.00" timeLoss="14.01" rerouteNo="0" devices="tripinfo_OD131_NV.0" vType="NV" speedFactor="1.00" vaporized=""/>
    <tripinfo id="OD174_NV.0" depart="19.00" departLane="top3D4_0" departPos="5.10" departSpeed="10.00" departDelay="0.66" arrival="160.00" arrivalLane="A4left4_1" arrivalPos="286.40" arrivalSpeed="13.27" duration="141.00" routeLength="1476.73" waitingTime="15.00" waitingCount="2" stopTime="0.00" timeLoss="34.09" rerouteNo="0" devices="tripinfo_OD174_NV.0" vType="NV" speedFactor="1.00" vaporized=""/>
    <tripinfo id="OD14_NV.0" depart="90.00" departLane="right3E3_0" departPos="5.10" departSpeed="10.00" departDelay="0.85" arrival="161.00" arrivalLane="E4right4_0" arrivalPos="286.40" arrivalSpeed="13.05" duration="71.00" routeLength="858.56" waitingTime="0.00" waitingCount="0" stopTime="0.00" timeLoss="7.13" rerouteNo="0" devices="tripinfo_OD14_NV.0" vType="NV" speedFactor="1.00" vaporized=""/>
    <tripinfo id="OD174_NV.1" depart="23.00" departLane="top3D4_0" departPos="5.10" departSpeed="10.00" departDelay="3.67" arrival="162.00" arrivalLane="A4left4_1" arrivalPos="286.40" arrivalSpeed="12.93" duration="139.00" routeLength="1476.73" waitingTime="13.00" waitingCount="2" stopTime="0.00" timeLoss="32.11" rerouteNo="0" devices="tripinfo_OD174_NV.1" vType="NV" speedFactor="1.00" vaporized=""/>
    <tripinfo id="OD374_NV.0" depart="12.00" departLane="right1E1_0" departPos="5.10" departSpeed="10.00" departDelay="2.10" arrival="164.00" arrivalLane="E3right3_0" arrivalPos="286.40" arrivalSpeed="12.42" duration="152.00" routeLength="1158.56" waitingTime="52.00" waitingCount="1" stopTime="0.00" timeLoss="66.76" rerouteNo="0" devices="tripinfo_OD374_NV.0" vType="NV" speedFactor="1.00" vaporized=""/>
    <tripinfo id="OD368_NV.1" depart="101.00" departLane="right1E1_0" departPos="5.10" departSpeed="10.00" departDelay="0.86" arrival="170.00" arrivalLane="E2right2_0" arrivalPos="286.40" arrivalSpeed="13.59" duration="69.00" routeLength="858.56" waitingTime="0.00" waitingCount="0" stopTime="0.00" timeLoss="5.51" rerouteNo="0" devices="tripinfo_OD368_NV.1" vType="NV" speedFactor="1.00" vaporized=""/>
    <tripinfo id="OD374_NV.1" depart="60.00" departLane="right1E1_0" departPos="5.10" departSpeed="10.00" departDelay="0.36" arrival="171.00" arrivalLane="E3right3_0" arrivalPos="286.40" arrivalSpeed="13.24" duration="111.00" routeLength="1158.56" waitingTime="11.00" waitingCount="1" stopTime="0.00" timeLoss="26.10" rerouteNo="0" devices="tripinfo_OD374_NV.1" vType="NV" speedFactor="1.00" vaporized=""/>
    <tripinfo id="OD320_NV.1" depart="76.00" departLane="left4A4_0" departPos="5.10" departSpeed="10.00" departDelay="1.44" arrival="171.00" arrivalLane="A2left2_0" arrivalPos="286.40" arrivalSpeed="13.72" duration="95.00" routeLength="1158.56" waitingTime="0.00" waitingCount="0" stopTime="0.00" timeLoss="9.44" rerouteNo="0" devices="tripinfo_OD320_NV.1" vType="NV" speedFactor="1.00" vaporized=""/>
    <tripinfo id="OD310_NV.4" depart="101.00" departLane="left4A4_0" departPos="5.10" departSpeed="10.00" departDelay="0.28" arrival="172.00" arrivalLane="A3left3_0" arrivalPos="286.40" arrivalSpeed="12.77" duration="71.00" routeLength="858.56" waitingTime="0.00" waitingCount="0" stopTime="0.00" timeLoss="6.98" rerouteNo="0" devices="tripinfo_OD310_NV.4" vType="NV" speedFactor="1.00" vaporized=""/>
    <tripinfo id="OD76_NV.1" depart="104.00" departLane="right0E0_0" departPos="5.10" departSpeed="10.00" departDelay="0.91" arrival="174.00" arrivalLane="E1right1_0" arrivalPos="286.40" arrivalSpeed="12.85" duration="70.00" routeLength="858.56" waitingTime="0.00" waitingCount="0" stopTime="0.00" timeLoss="7.17" rerouteNo="0" devices="tripinfo_OD76_NV.1" vType="NV" speedFactor="1.00" vaporized=""/>
    <tripinfo id="OD192_NV.0" depart="106.00" departLane="bottom1B0_0" departPos="5.10" departSpeed="10.00" departDelay="0.31" arrival="176.00" arrivalLane="C0bottom2_0" arrivalPos="286.40" arrivalSpeed="13.05" duration="70.00" routeLength="858.56" waitingTime="0.00" waitingCount="0" stopTime="0.00" timeLoss="6.29" rerouteNo="0" devices="tripinfo_OD192_NV.0" vType="NV" speedFactor="1.00" vaporized=""/>
    <tripinfo id="OD365_NV.0" depart="7.00" departLane="right1E1_0" departPos="5.10" departSpeed="10.00" departDelay="0.05" arrival="177.00" arrivalLane="D0bottom3_1" arrivalPos="286.40" arrivalSpeed="13.01" duration="170.00" routeLength="1192.21" waitingTime="65.00" waitingCount="2" stopTime="0.00" timeLoss="83.17" rerouteNo="0" devices="tripinfo_OD365_NV.0" vType="NV" speedFactor="1.00" vaporized=""/>
    <tripinfo id="OD169_NV.1" depart="46.00" departLane="left2A2_0" departPos="5.10" departSpeed="10.00" departDelay="0.47" arrival="179.00" arrivalLane="A0bottom0_1" arrivalPos="286.40" arrivalSpeed="12.65" duration="133.00" routeLength="1176.73" waitingTime="35.00" waitingCount="1" stopTime="0.00" timeLoss="47.34" rerouteNo="0" devices="tripinfo_OD169_NV.1" vType="NV" speedFactor="1.00" vaporized=""/>
    <tripinfo id="OD161_NV.0" depart="108.00" departLane="left2A2_0" departPos="5.10" departSpeed="10.00" departDelay="0.85" arrival="179.00" arrivalLane="A1left1_0" arrivalPos="286.40" arrivalSpeed="13.31" duration="71.00" routeLength="858.56" waitingTime="0.00" waitingCount="0" stopTime="0.00" timeLoss="7.16" rerouteNo="0" devices="tripinfo_OD161_NV.0" vType="NV" speedFactor="1.00" vaporized=""/>
    <tripinfo id="OD353_RV.1" depart="64.00" departLane="bottom2C0_0" departPos="5.10" departSpeed="10.00" departDelay="0.22" arrival="180.00" arrivalLane="E0right0_1" arrivalPos="286.40" arrivalSpeed="12.44" duration="116.00" routeLength="1176.73" waitingTime="15.00" waitingCount="2" stopTime="0.00" timeLoss="30.00" rerouteNo="0" devices="tripinfo_OD353_RV.1" vType="RV" speedFactor="1.00" vaporized=""/>
    <tripinfo id="OD374_NV.2" depart="86.00" departLane="right1E1_0" departPos="5.10" departSpeed="10.00" departDelay="0.03" arrival="180.00" arrivalLane="E3right3_0" arrivalPos="286.40" arrivalSpeed="13.69" duration="94.00" routeLength="1158.56" waitingTime="0.00" waitingCount="0" stopTime="0.00" timeLoss="9.19" rerouteNo="0" devices="tripinfo_OD374_NV.2" vType="NV" speedFactor="1.00" vaporized=""/>
    <tripinfo id="OD264_NV.0" depart="6.00" departLane="left3A3_0" departPos="5.10" departSpeed="10.00" departDelay="0.30" arrival="181.00" arrivalLane="A0bottom0_1" arrivalPos="286.40" arrivalSpeed="13.66" duration="175.00" routeLength="1476.73" waitingTime="49.00" waitingCount="2" stopTime="0.00" timeLoss="67.39" rerouteNo="0" devices="tripinfo_OD264_NV.0" vType="NV" speedFactor="1.00" vaporized=""/>
    <tripinfo id="OD353_NV.0" depart="80.00" departLane="bottom2C0_0" departPos="5.10" departSpeed="10.00" departDelay="0.36" arrival="182.00" arrivalLane="E0right0_1" arrivalPos="286.40" arrivalSpeed="12.73" duration="102.00" routeLength="1176.73" waitingTime="0.00" waitingCount="0" stopTime="0.00" timeLoss="15.36" rerouteNo="0" devices="tripinfo_OD353_NV.0" vType="NV" speedFactor="1.00" vaporized=""/>
    <tripinfo id="OD161_NV.1" depart="109.00" departLane="left2A2_0" departPos="5.10" departSpeed="10.00" departDelay="1.36" arrival="182.00" arrivalLane="A1left1_0" arrivalPos="286.40" arrivalSpeed="13.49" duration="73.00" routeLength="858.56" waitingTime="0.00" waitingCount="0" stopTime="0.00" timeLoss="9.02" rerouteNo="0" devices="tripinfo_OD161_NV.1" vType="NV" speedFactor="1.00" vaporized=""/>
    <tripinfo id="OD321_NV.0" depart="20.00" departLane="left4A4_0" departPos="5.10" departSpeed="10.00" departDelay="0.96" arrival="183.00" arrivalLane="A0bottom0_1" arrivalPos="286.40" arrivalSpeed="13.64" duration="163.00" routeLength="1776.73" waitingTime="13.00" waitingCount="2" stopTime="0.00" timeLoss="33.95" rerouteNo="0" devices="tripinfo_OD321_NV.0" vType="NV" speedFactor="1.00" vaporized=""/>
    <tripinfo id="OD369_NV.0" depart="5.00" departLane="right1E1_0" departPos="5.10" departSpeed="10.00" departDelay="2.04" arrival="184.00" arrivalLane="E4top4_1" arrivalPos="286.40" arrivalSpeed="12.94" duration="179.00" routeLength="1476.73" waitingTime="56.00" waitingCount="1" stopTime="0.00" timeLoss="71.61" rerouteNo="0" devices="tripinfo_OD369_NV.0" vType="NV" speedFactor="1.00" vaporized=""/>
    <tripinfo id="OD169_NV.2" depart="80.00" departLane="left2A2_0" departPos="5.10" departSpeed="10.00" departDelay="0.28" arrival="185.00" arrivalLane="A0bottom0_1" arrivalPos="286.40" arrivalSpeed="13.39" duration="105.00" routeLength="1176.73" waitingTime="5.00" waitingCount="1" stopTime="0.00" timeLoss="19.09" rerouteNo="0" devices="tripinfo_OD169_NV.2" vType="NV" speedFactor="1.00" vaporized=""/>
    <tripinfo id="OD245_RV.0" depart="27.00" departLane="top0A4_0" departPos="5.10" departSpeed="10.00" departDelay="0.79" arrival="186.00" arrivalLane="A0bottom0_1" arrivalPos="286.40" arrivalSpeed="13.67" duration="159.00" routeLength="1794.90" waitingTime="6.00" waitingCount="2" stopTime="0.00" timeLoss="29.78" rerouteNo="0" devices="tripinfo_OD245_RV.0" vType="RV" speedFactor="1.00" vaporized=""/>
    <tripinfo id="OD194_NV.0" depart="84.00" departLane="bottom1B0_0" departPos="5.10" departSpeed="10.00" departDelay="2.99" arrival="188.00" arrivalLane="D0bottom3_0" arrivalPos="286.40" arrivalSpeed="13.48" duration="104.00" routeLength="1158.56" waitingTime="5.00" waitingCount="1" stopTime="0.00" timeLoss="19.50" rerouteNo="0" devices="tripinfo_OD194_NV.0" vType="NV" speedFactor="1.00" vaporized=""/>