<?xml version="1.0" encoding="UTF-8"?>

<!-- generated on 2025-02-21 06:24:25 by Eclipse SUMO sumo Version 1.20.0
<configuration xmlns:xsi="http://www.w3.org/2001/XMLSchema-instance" xsi:noNamespaceSchemaLocation="http://sumo.dlr.de/xsd/sumoConfiguration.xsd">

    <input>
        <net-file value="./envs/5x5/5x5.net.xml"/>
        <route-files value="./envs/5x5/Demand_20.rou.xml"/>
    </input>

    <output>
        <tripinfo-output value="./online_train/5x5\online_train_SAC-top3SV_multi_agents/tripinfo/tripinfo_ep130.xml"/>
    </output>

    <time>
        <begin value="0"/>
    </time>

    <processing>
        <time-to-teleport value="-1"/>
        <waiting-time-memory value="1800"/>
    </processing>

    <report>
        <no-step-log value="true"/>
    </report>

    <traci_server>
        <remote-port value="65504"/>
    </traci_server>

</configuration>
-->

<tripinfos xmlns:xsi="http://www.w3.org/2001/XMLSchema-instance" xsi:noNamespaceSchemaLocation="http://sumo.dlr.de/xsd/tripinfo_file.xsd">
    <tripinfo id="OD310_NV.0" depart="4.00" departLane="left4A4_0" departPos="5.10" departSpeed="10.00" departDelay="1.48" arrival="75.00" arrivalLane="A3left3_0" arrivalPos="286.40" arrivalSpeed="12.82" duration="71.00" routeLength="858.56" waitingTime="0.00" waitingCount="0" stopTime="0.00" timeLoss="7.16" rerouteNo="0" devices="tripinfo_OD310_NV.0" vType="NV" speedFactor="1.00" vaporized=""/>
    <tripinfo id="OD310_NV.1" depart="8.00" departLane="left4A4_0" departPos="5.10" departSpeed="10.00" departDelay="3.20" arrival="79.00" arrivalLane="A3left3_0" arrivalPos="286.40" arrivalSpeed="12.86" duration="71.00" routeLength="858.56" waitingTime="0.00" waitingCount="0" stopTime="0.00" timeLoss="7.76" rerouteNo="0" devices="tripinfo_OD310_NV.1" vType="NV" speedFactor="1.00" vaporized=""/>
    <tripinfo id="OD38_NV.0" depart="8.00" departLane="right2E2_0" departPos="5.10" departSpeed="10.00" departDelay="1.45" arrival="83.00" arrivalLane="E1right1_2" arrivalPos="286.40" arrivalSpeed="13.89" duration="75.00" routeLength="889.52" waitingTime="0.00" waitingCount="0" stopTime="0.00" timeLoss="8.89" rerouteNo="0" devices="tripinfo_OD38_NV.0" vType="NV" speedFactor="1.00" vaporized=""/>
    <tripinfo id="OD102_NV.0" depart="37.00" departLane="right4E4_0" departPos="5.10" departSpeed="10.00" departDelay="0.87" arrival="84.00" arrivalLane="E4top4_0" arrivalPos="286.40" arrivalSpeed="13.05" duration="47.00" routeLength="576.73" waitingTime="0.00" waitingCount="0" stopTime="0.00" timeLoss="4.42" rerouteNo="0" devices="tripinfo_OD102_NV.0" vType="NV" speedFactor="1.00" vaporized=""/>
    <tripinfo id="OD129_NV.0" depart="19.00" departLane="left1A1_0" departPos="5.10" departSpeed="10.00" departDelay="0.11" arrival="90.00" arrivalLane="A0left0_0" arrivalPos="286.40" arrivalSpeed="13.06" duration="71.00" routeLength="858.56" waitingTime="0.00" waitingCount="0" stopTime="0.00" timeLoss="7.92" rerouteNo="0" devices="tripinfo_OD129_NV.0" vType="NV" speedFactor="1.00" vaporized=""/>
    <tripinfo id="OD284_NV.0" depart="22.00" departLane="top4E4_0" departPos="5.10" departSpeed="10.00" departDelay="1.14" arrival="93.00" arrivalLane="D4top3_0" arrivalPos="286.40" arrivalSpeed="13.13" duration="71.00" routeLength="858.56" waitingTime="0.00" waitingCount="0" stopTime="0.00" timeLoss="7.62" rerouteNo="0" devices="tripinfo_OD284_NV.0" vType="NV" speedFactor="1.00" vaporized=""/>
    <tripinfo id="OD129_RV.0" depart="32.00" departLane="left1A1_0" departPos="5.10" departSpeed="10.00" departDelay="0.10" arrival="101.00" arrivalLane="A0left0_0" arrivalPos="286.40" arrivalSpeed="12.48" duration="69.00" routeLength="858.56" waitingTime="0.00" waitingCount="0" stopTime="0.00" timeLoss="6.24" rerouteNo="0" devices="tripinfo_OD129_RV.0" vType="RV" speedFactor="1.00" vaporized=""/>
    <tripinfo id="OD365_NV.0" depart="7.00" departLane="right1E1_0" departPos="5.10" departSpeed="10.00" departDelay="0.05" arrival="104.00" arrivalLane="D0bottom3_1" arrivalPos="286.40" arrivalSpeed="13.63" duration="97.00" routeLength="1192.21" waitingTime="0.00" waitingCount="0" stopTime="0.00" timeLoss="10.20" rerouteNo="0" devices="tripinfo_OD365_NV.0" vType="NV" speedFactor="1.00" vaporized=""/>
    <tripinfo id="OD291_NV.0" depart="3.00" departLane="top1B4_0" departPos="5.10" departSpeed="10.00" departDelay="0.51" arrival="108.00" arrivalLane="A3left3_1" arrivalPos="286.40" arrivalSpeed="13.56" duration="105.00" routeLength="1176.73" waitingTime="7.00" waitingCount="1" stopTime="0.00" timeLoss="19.07" rerouteNo="0" devices="tripinfo_OD291_NV.0" vType="NV" speedFactor="1.00" vaporized=""/>
    <tripinfo id="OD310_NV.2" depart="38.00" departLane="left4A4_0" departPos="5.10" departSpeed="10.00" departDelay="0.76" arrival="108.00" arrivalLane="A3left3_0" arrivalPos="286.40" arrivalSpeed="13.28" duration="70.00" routeLength="858.56" waitingTime="0.00" waitingCount="0" stopTime="0.00" timeLoss="6.80" rerouteNo="0" devices="tripinfo_OD310_NV.2" vType="NV" speedFactor="1.00" vaporized=""/>
    <tripinfo id="OD176_NV.0" depart="40.00" departLane="top3D4_0" departPos="5.10" departSpeed="10.00" departDelay="0.16" arrival="110.00" arrivalLane="C4top2_0" arrivalPos="286.40" arrivalSpeed="13.08" duration="70.00" routeLength="858.56" waitingTime="0.00" waitingCount="0" stopTime="0.00" timeLoss="6.60" rerouteNo="0" devices="tripinfo_OD176_NV.0" vType="NV" speedFactor="1.00" vaporized=""/>
    <tripinfo id="OD244_NV.0" depart="9.00" departLane="top0A4_0" departPos="5.10" departSpeed="10.00" departDelay="1.64" arrival="119.00" arrivalLane="A2left2_0" arrivalPos="286.40" arrivalSpeed="13.07" duration="110.00" routeLength="1176.73" waitingTime="12.00" waitingCount="1" stopTime="0.00" timeLoss="24.28" rerouteNo="0" devices="tripinfo_OD244_NV.0" vType="NV" speedFactor="1.00" vaporized=""/>
    <tripinfo id="OD65_RV.0" depart="49.00" departLane="bottom3D0_0" departPos="5.10" departSpeed="10.00" departDelay="2.05" arrival="120.00" arrivalLane="E0bottom4_0" arrivalPos="286.40" arrivalSpeed="13.83" duration="71.00" routeLength="858.56" waitingTime="0.00" waitingCount="0" stopTime="0.00" timeLoss="7.71" rerouteNo="0" devices="tripinfo_OD65_RV.0" vType="RV" speedFactor="1.00" vaporized=""/>
    <tripinfo id="OD50_NV.0" depart="49.00" departLane="right2E2_0" departPos="5.10" departSpeed="10.00" departDelay="0.93" arrival="120.00" arrivalLane="E3right3_0" arrivalPos="286.40" arrivalSpeed="12.40" duration="71.00" routeLength="858.56" waitingTime="0.00" waitingCount="0" stopTime="0.00" timeLoss="7.39" rerouteNo="0" devices="tripinfo_OD50_NV.0" vType="NV" speedFactor="1.00" vaporized=""/>
    <tripinfo id="OD284_NV.1" depart="54.00" departLane="top4E4_0" departPos="5.10" departSpeed="10.00" departDelay="0.77" arrival="123.00" arrivalLane="D4top3_0" arrivalPos="286.40" arrivalSpeed="13.43" duration="69.00" routeLength="858.56" waitingTime="0.00" waitingCount="0" stopTime="0.00" timeLoss="6.14" rerouteNo="0" devices="tripinfo_OD284_NV.1" vType="NV" speedFactor="1.00" vaporized=""/>
    <tripinfo id="OD65_NV.0" depart="54.00" departLane="bottom3D0_0" departPos="5.10" departSpeed="10.00" departDelay="0.88" arrival="124.00" arrivalLane="E0bottom4_0" arrivalPos="286.40" arrivalSpeed="13.14" duration="70.00" routeLength="858.56" waitingTime="0.00" waitingCount="0" stopTime="0.00" timeLoss="6.63" rerouteNo="0" devices="tripinfo_OD65_NV.0" vType="NV" speedFactor="1.00" vaporized=""/>
    <tripinfo id="OD50_NV.1" depart="60.00" departLane="right2E2_0" departPos="5.10" departSpeed="10.00" departDelay="0.59" arrival="133.00" arrivalLane="E3right3_0" arrivalPos="286.40" arrivalSpeed="12.81" duration="73.00" routeLength="858.56" waitingTime="0.00" waitingCount="0" stopTime="0.00" timeLoss="8.92" rerouteNo="0" devices="tripinfo_OD50_NV.1" vType="NV" speedFactor="1.00" vaporized=""/>
    <tripinfo id="OD158_NV.0" depart="4.00" departLane="left2A2_0" departPos="5.10" departSpeed="10.00" departDelay="0.74" arrival="134.00" arrivalLane="A3left3_2" arrivalPos="286.40" arrivalSpeed="13.10" duration="130.00" routeLength="889.52" waitingTime="53.00" waitingCount="2" stopTime="0.00" timeLoss="64.13" rerouteNo="0" devices="tripinfo_OD158_NV.0" vType="NV" speedFactor="1.00" vaporized=""/>
    <tripinfo id="OD305_NV.0" depart="11.00" departLane="left4A4_0" departPos="5.10" departSpeed="10.00" departDelay="1.44" arrival="135.00" arrivalLane="A4top0_2" arrivalPos="286.40" arrivalSpeed="12.71" duration="124.00" routeLength="592.21" waitingTime="72.00" waitingCount="1" stopTime="0.00" timeLoss="80.54" rerouteNo="0" devices="tripinfo_OD305_NV.0" vType="NV" speedFactor="1.00" vaporized=""/>
    <tripinfo id="OD158_NV.1" depart="13.00" departLane="left2A2_0" departPos="5.10" departSpeed="10.00" departDelay="1.11" arrival="136.00" arrivalLane="A3left3_2" arrivalPos="286.40" arrivalSpeed="13.66" duration="123.00" routeLength="889.52" waitingTime="42.00" waitingCount="2" stopTime="0.00" timeLoss="56.88" rerouteNo="0" devices="tripinfo_OD158_NV.1" vType="NV" speedFactor="1.00" vaporized=""/>
    <tripinfo id="OD76_NV.0" depart="65.00" departLane="right0E0_0" departPos="5.10" departSpeed="10.00" departDelay="0.41" arrival="136.00" arrivalLane="E1right1_0" arrivalPos="286.40" arrivalSpeed="13.44" duration="71.00" routeLength="858.56" waitingTime="0.00" waitingCount="0" stopTime="0.00" timeLoss="7.18" rerouteNo="0" devices="tripinfo_OD76_NV.0" vType="NV" speedFactor="1.00" vaporized=""/>
    <tripinfo id="OD257_RV.0" depart="12.00" departLane="left3A3_0" departPos="5.10" departSpeed="10.00" departDelay="1.82" arrival="138.00" arrivalLane="A1left1_0" arrivalPos="286.40" arrivalSpeed="13.54" duration="126.00" routeLength="1158.56" waitingTime="27.00" waitingCount="1" stopTime="0.00" timeLoss="40.44" rerouteNo="0" devices="tripinfo_OD257_RV.0" vType="RV" speedFactor="1.00" vaporized=""/>
    <tripinfo id="OD353_RV.0" depart="6.00" departLane="bottom2C0_0" departPos="5.10" departSpeed="10.00" departDelay="3.40" arrival="139.00" arrivalLane="E0right0_1" arrivalPos="286.40" arrivalSpeed="12.52" duration="133.00" routeLength="1176.73" waitingTime="32.00" waitingCount="1" stopTime="0.00" timeLoss="46.82" rerouteNo="0" devices="tripinfo_OD353_RV.0" vType="RV" speedFactor="1.00" vaporized=""/>
    <tripinfo id="OD45_NV.0" depart="6.00" departLane="right2E2_0" departPos="5.10" departSpeed="10.00" departDelay="0.70" arrival="139.00" arrivalLane="E4top4_1" arrivalPos="286.40" arrivalSpeed="12.84" duration="133.00" routeLength="1176.73" waitingTime="36.00" waitingCount="1" stopTime="0.00" timeLoss="47.32" rerouteNo="0" devices="tripinfo_OD45_NV.0" vType="NV" speedFactor="1.00" vaporized=""/>
    <tripinfo id="OD257_NV.0" depart="38.00" departLane="left3A3_0" departPos="5.10" departSpeed="10.00" departDelay="0.13" arrival="141.00" arrivalLane="A1left1_0" arrivalPos="286.40" arrivalSpeed="13.36" duration="103.00" routeLength="1158.56" waitingTime="2.00" waitingCount="1" stopTime="0.00" timeLoss="17.27" rerouteNo="0" devices="tripinfo_OD257_NV.0" vType="NV" speedFactor="1.00" vaporized=""/>
    <tripinfo id="OD50_NV.2" depart="71.00" departLane="right2E2_0" departPos="5.10" departSpeed="10.00" departDelay="0.74" arrival="142.00" arrivalLane="E3right3_0" arrivalPos="286.40" arrivalSpeed="12.79" duration="71.00" routeLength="858.56" waitingTime="0.00" waitingCount="0" stopTime="0.00" timeLoss="7.71" rerouteNo="0" devices="tripinfo_OD50_NV.2" vType="NV" speedFactor="1.00" vaporized=""/>
    <tripinfo id="OD199_NV.0" depart="16.00" departLane="bottom1B0_0" departPos="5.10" departSpeed="10.00" departDelay="3.02" arrival="143.00" arrivalLane="E0bottom4_0" arrivalPos="286.40" arrivalSpeed="13.10" duration="127.00" routeLength="1458.56" waitingTime="2.00" waitingCount="1" stopTime="0.00" timeLoss="20.29" rerouteNo="0" devices="tripinfo_OD199_NV.0" vType="NV" speedFactor="1.00" vaporized=""/>
    <tripinfo id="OD184_NV.0" depart="25.00" departLane="top3D4_0" departPos="5.10" departSpeed="10.00" departDelay="5.03" arrival="143.00" arrivalLane="B4top1_0" arrivalPos="286.40" arrivalSpeed="13.29" duration="118.00" routeLength="1158.56" waitingTime="20.00" waitingCount="1" stopTime="0.00" timeLoss="32.51" rerouteNo="0" devices="tripinfo_OD184_NV.0" vType="NV" speedFactor="1.00" vaporized=""/>
    <tripinfo id="OD184_RV.0" depart="29.00" departLane="top3D4_0" departPos="5.10" departSpeed="10.00" departDelay="1.79" arrival="146.00" arrivalLane="B4top1_0" arrivalPos="286.40" arrivalSpeed="13.09" duration="117.00" routeLength="1158.56" waitingTime="16.00" waitingCount="1" stopTime="0.00" timeLoss="30.97" rerouteNo="0" devices="tripinfo_OD184_RV.0" vType="RV" speedFactor="1.00" vaporized=""/>
    <tripinfo id="OD320_NV.0" depart="28.00" departLane="left4A4_0" departPos="5.10" departSpeed="10.00" departDelay="1.49" arrival="147.00" arrivalLane="A2left2_0" arrivalPos="286.40" arrivalSpeed="12.90" duration="119.00" routeLength="1158.56" waitingTime="14.00" waitingCount="1" stopTime="0.00" timeLoss="33.51" rerouteNo="0" devices="tripinfo_OD320_NV.0" vType="NV" speedFactor="1.00" vaporized=""/>
    <tripinfo id="OD176_NV.1" depart="76.00" departLane="top3D4_0" departPos="5.10" departSpeed="10.00" departDelay="1.17" arrival="147.00" arrivalLane="C4top2_0" arrivalPos="286.40" arrivalSpeed="13.38" duration="71.00" routeLength="858.56" waitingTime="0.00" waitingCount="0" stopTime="0.00" timeLoss="6.91" rerouteNo="0" devices="tripinfo_OD176_NV.1" vType="NV" speedFactor="1.00" vaporized=""/>
    <tripinfo id="OD7_NV.0" depart="77.00" departLane="right3E3_0" departPos="5.10" departSpeed="10.00" departDelay="0.10" arrival="147.00" arrivalLane="E4top4_1" arrivalPos="286.40" arrivalSpeed="13.14" duration="70.00" routeLength="876.73" waitingTime="0.00" waitingCount="0" stopTime="0.00" timeLoss="5.36" rerouteNo="0" devices="tripinfo_OD7_NV.0" vType="NV" speedFactor="1.00" vaporized=""/>
    <tripinfo id="OD288_RV.0" depart="59.00" departLane="top1B4_0" departPos="5.10" departSpeed="10.00" departDelay="1.65" arrival="148.00" arrivalLane="A4left4_1" arrivalPos="286.40" arrivalSpeed="13.23" duration="89.00" routeLength="876.73" waitingTime="15.00" waitingCount="1" stopTime="0.00" timeLoss="25.32" rerouteNo="0" devices="tripinfo_OD288_RV.0" vType="RV" speedFactor="1.00" vaporized=""/>
    <tripinfo id="OD368_NV.0" depart="78.00" departLane="right1E1_0" departPos="5.10" departSpeed="10.00" departDelay="0.11" arrival="148.00" arrivalLane="E2right2_0" arrivalPos="286.40" arrivalSpeed="12.99" duration="70.00" routeLength="858.56" waitingTime="0.00" waitingCount="0" stopTime="0.00" timeLoss="6.82" rerouteNo="0" devices="tripinfo_OD368_NV.0" vType="NV" speedFactor="1.00" vaporized=""/>
    <tripinfo id="OD205_NV.0" depart="12.00" departLane="bottom1B0_0" departPos="5.10" departSpeed="10.00" departDelay="2.02" arrival="149.00" arrivalLane="A0left0_1" arrivalPos="286.40" arrivalSpeed="13.57" duration="137.00" routeLength="892.21" waitingTime="57.00" waitingCount="2" stopTime="0.00" timeLoss="71.48" rerouteNo="0" devices="tripinfo_OD205_NV.0" vType="NV" speedFactor="1.00" vaporized=""/>
    <tripinfo id="OD113_NV.0" depart="35.00" departLane="right4E4_0" departPos="5.10" departSpeed="10.00" departDelay="0.56" arrival="149.00" arrivalLane="D4top3_0" arrivalPos="286.40" arrivalSpeed="13.65" duration="114.00" routeLength="876.73" waitingTime="39.00" waitingCount="1" stopTime="0.00" timeLoss="50.03" rerouteNo="0" devices="tripinfo_OD113_NV.0" vType="NV" speedFactor="1.00" vaporized=""/>
    <tripinfo id="OD21_RV.0" depart="16.00" departLane="top2C4_0" departPos="5.10" departSpeed="10.00" departDelay="0.63" arrival="150.00" arrivalLane="A4left4_1" arrivalPos="286.40" arrivalSpeed="13.49" duration="134.00" routeLength="1176.73" waitingTime="31.00" waitingCount="1" stopTime="0.00" timeLoss="48.44" rerouteNo="0" devices="tripinfo_OD21_RV.0" vType="RV" speedFactor="1.00" vaporized=""/>
    <tripinfo id="OD244_NV.1" depart="45.00" departLane="top0A4_0" departPos="5.10" departSpeed="10.00" departDelay="0.91" arrival="150.00" arrivalLane="A2left2_0" arrivalPos="286.40" arrivalSpeed="12.90" duration="105.00" routeLength="1176.73" waitingTime="6.00" waitingCount="1" stopTime="0.00" timeLoss="18.82" rerouteNo="0" devices="tripinfo_OD244_NV.1" vType="NV" speedFactor="1.00" vaporized=""/>
    <tripinfo id="OD21_RV.1" depart="36.00" departLane="top2C4_0" departPos="5.10" departSpeed="10.00" departDelay="0.64" arrival="152.00" arrivalLane="A4left4_1" arrivalPos="286.40" arrivalSpeed="12.88" duration="116.00" routeLength="1176.73" waitingTime="13.00" waitingCount="1" stopTime="0.00" timeLoss="30.51" rerouteNo="0" devices="tripinfo_OD21_RV.1" vType="RV" speedFactor="1.00" vaporized=""/>
    <tripinfo id="OD52_NV.0" depart="59.00" departLane="right2E2_0" departPos="5.10" departSpeed="10.00" departDelay="0.01" arrival="152.00" arrivalLane="E4right4_0" arrivalPos="286.40" arrivalSpeed="13.04" duration="93.00" routeLength="1158.56" waitingTime="0.00" waitingCount="0" stopTime="0.00" timeLoss="8.35" rerouteNo="0" devices="tripinfo_OD52_NV.0" vType="NV" speedFactor="1.00" vaporized=""/>
    <tripinfo id="OD310_NV.3" depart="82.00" departLane="left4A4_0" departPos="5.10" departSpeed="10.00" departDelay="0.90" arrival="152.00" arrivalLane="A3left3_0" arrivalPos="286.40" arrivalSpeed="12.56" duration="70.00" routeLength="858.56" waitingTime="0.00" waitingCount="0" stopTime="0.00" timeLoss="6.51" rerouteNo="0" devices="tripinfo_OD310_NV.3" vType="NV" speedFactor="1.00" vaporized=""/>
    <tripinfo id="OD148_RV.0" depart="18.00" departLane="left0A0_0" departPos="5.10" departSpeed="10.00" departDelay="0.00" arrival="160.00" arrivalLane="A0left0_1" arrivalPos="286.40" arrivalSpeed="13.42" duration="142.00" routeLength="1737.70" waitingTime="0.00" waitingCount="0" stopTime="0.00" timeLoss="13.87" rerouteNo="0" devices="tripinfo_OD148_RV.0" vType="RV" speedFactor="1.00" vaporized=""/>
    <tripinfo id="OD14_NV.0" depart="90.00" departLane="right3E3_0" departPos="5.10" departSpeed="10.00" departDelay="0.85" arrival="160.00" arrivalLane="E4right4_0" arrivalPos="286.40" arrivalSpeed="13.11" duration="70.00" routeLength="858.56" waitingTime="0.00" waitingCount="0" stopTime="0.00" timeLoss="6.42" rerouteNo="0" devices="tripinfo_OD14_NV.0" vType="NV" speedFactor="1.00" vaporized=""/>
    <tripinfo id="OD169_RV.0" depart="7.00" departLane="left2A2_0" departPos="5.10" departSpeed="10.00" departDelay="0.60" arrival="166.00" arrivalLane="A0bottom0_1" arrivalPos="286.40" arrivalSpeed="13.42" duration="159.00" routeLength="1176.73" waitingTime="59.00" waitingCount="2" stopTime="0.00" timeLoss="73.67" rerouteNo="0" devices="tripinfo_OD169_RV.0" vType="RV" speedFactor="1.00" vaporized=""/>
    <tripinfo id="OD169_NV.0" depart="17.00" departLane="left2A2_0" departPos="5.10" departSpeed="10.00" departDelay="0.59" arrival="168.00" arrivalLane="A0bottom0_1" arrivalPos="286.40" arrivalSpeed="13.57" duration="151.00" routeLength="1176.73" waitingTime="46.00" waitingCount="2" stopTime="0.00" timeLoss="65.04" rerouteNo="0" devices="tripinfo_OD169_NV.0" vType="NV" speedFactor="1.00" vaporized=""/>
    <tripinfo id="OD169_NV.1" depart="46.00" departLane="left2A2_0" departPos="5.10" departSpeed="10.00" departDelay="0.47" arrival="170.00" arrivalLane="A0bottom0_1" arrivalPos="286.40" arrivalSpeed="13.52" duration="124.00" routeLength="1176.73" waitingTime="20.00" waitingCount="2" stopTime="0.00" timeLoss="38.16" rerouteNo="0" devices="tripinfo_OD169_NV.1" vType="NV" speedFactor="1.00" vaporized=""/>
    <tripinfo id="OD368_NV.1" depart="101.00" departLane="right1E1_0" departPos="5.10" departSpeed="10.00" departDelay="0.86" arrival="171.00" arrivalLane="E2right2_0" arrivalPos="286.40" arrivalSpeed="12.71" duration="70.00" routeLength="858.56" waitingTime="0.00" waitingCount="0" stopTime="0.00" timeLoss="6.71" rerouteNo="0" devices="tripinfo_OD368_NV.1" vType="NV" speedFactor="1.00" vaporized=""/>
    <tripinfo id="OD131_NV.0" depart="80.00" departLane="left1A1_0" departPos="5.10" departSpeed="10.00" departDelay="0.33" arrival="172.00" arrivalLane="A0bottom0_1" arrivalPos="286.40" arrivalSpeed="13.74" duration="92.00" routeLength="876.73" waitingTime="13.00" waitingCount="1" stopTime="0.00" timeLoss="27.62" rerouteNo="0" devices="tripinfo_OD131_NV.0" vType="NV" speedFactor="1.00" vaporized=""/>
    <tripinfo id="OD310_NV.4" depart="101.00" departLane="left4A4_0" departPos="5.10" departSpeed="10.00" departDelay="0.28" arrival="172.00" arrivalLane="A3left3_0" arrivalPos="286.40" arrivalSpeed="13.21" duration="71.00" routeLength="858.56" waitingTime="0.00" waitingCount="0" stopTime="0.00" timeLoss="7.38" rerouteNo="0" devices="tripinfo_OD310_NV.4" vType="NV" speedFactor="1.00" vaporized=""/>
    <tripinfo id="OD183_RV.0" depart="59.00" departLane="top3D4_0" departPos="5.10" departSpeed="10.00" departDelay="0.46" arrival="173.00" arrivalLane="E3right3_1" arrivalPos="286.40" arrivalSpeed="13.35" duration="114.00" routeLength="1192.21" waitingTime="15.00" waitingCount="1" stopTime="0.00" timeLoss="27.20" rerouteNo="0" devices="tripinfo_OD183_RV.0" vType="RV" speedFactor="1.00" vaporized=""/>
    <tripinfo id="OD264_NV.0" depart="6.00" departLane="left3A3_0" departPos="5.10" departSpeed="10.00" departDelay="0.30" arrival="174.00" arrivalLane="A0bottom0_1" arrivalPos="286.40" arrivalSpeed="13.56" duration="168.00" routeLength="1476.73" waitingTime="39.00" waitingCount="2" stopTime="0.00" timeLoss="59.89" rerouteNo="0" devices="tripinfo_OD264_NV.0" vType="NV" speedFactor="1.00" vaporized=""/>
    <tripinfo id="OD250_NV.0" depart="30.00" departLane="left3A3_0" departPos="5.10" departSpeed="10.00" departDelay="0.83" arrival="174.00" arrivalLane="A4left4_2" arrivalPos="286.40" arrivalSpeed="13.46" duration="144.00" routeLength="889.52" waitingTime="65.00" waitingCount="2" stopTime="0.00" timeLoss="78.00" rerouteNo="0" devices="tripinfo_OD250_NV.0" vType="NV" speedFactor="1.00" vaporized=""/>
    <tripinfo id="OD135_NV.0" depart="51.00" departLane="left0A0_0" departPos="5.10" departSpeed="10.00" departDelay="0.64" arrival="174.00" arrivalLane="C0bottom2_0" arrivalPos="286.40" arrivalSpeed="13.63" duration="123.00" routeLength="1176.73" waitingTime="19.00" waitingCount="1" stopTime="0.00" timeLoss="37.61" rerouteNo="0" devices="tripinfo_OD135_NV.0" vType="NV" speedFactor="1.00" vaporized=""/>
    <tripinfo id="OD169_NV.2" depart="80.00" departLane="left2A2_0" departPos="5.10" departSpeed="10.00" departDelay="0.28" arrival="175.00" arrivalLane="A0bottom0_1" arrivalPos="286.40" arrivalSpeed="12.88" duration="95.00" routeLength="1176.73" waitingTime="0.00" waitingCount="0" stopTime="0.00" timeLoss="9.75" rerouteNo="0" devices="tripinfo_OD169_NV.2" vType="NV" speedFactor="1.00" vaporized=""/>
    <tripinfo id="OD76_NV.1" depart="104.00" departLane="right0E0_0" departPos="5.10" departSpeed="10.00" departDelay="0.91" arrival="175.00" arrivalLane="E1right1_0" arrivalPos="286.40" arrivalSpeed="13.17" duration="71.00" routeLength="858.56" waitingTime="0.00" waitingCount="0" stopTime="0.00" timeLoss="7.52" rerouteNo="0" devices="tripinfo_OD76_NV.1" vType="NV" speedFactor="1.00" vaporized=""/>
    <tripinfo id="OD370_NV.0" depart="29.00" departLane="right1E1_0" departPos="5.10" departSpeed="10.00" departDelay="0.78" arrival="176.00" arrivalLane="E0bottom4_1" arrivalPos="286.40" arrivalSpeed="13.23" duration="147.00" routeLength="892.21" waitingTime="73.00" waitingCount="1" stopTime="0.00" timeLoss="81.55" rerouteNo="0" devices="tripinfo_OD370_NV.0" vType="NV" speedFactor="1.00" vaporized=""/>
    <tripinfo id="OD187_NV.0" depart="5.00" departLane="top3D4_0" departPos="5.10" departSpeed="10.00" departDelay="0.79" arrival="177.00" arrivalLane="A2left2_0" arrivalPos="286.40" arrivalSpeed="13.68" duration="172.00" routeLength="2035.01" waitingTime="2.00" waitingCount="1" stopTime="0.00" timeLoss="21.75" rerouteNo="0" devices="tripinfo_OD187_NV.0" vType="NV" speedFactor="1.00" vaporized=""/>
    <tripinfo id="OD374_NV.0" depart="12.00" departLane="right1E1_0" departPos="5.10" departSpeed="10.00" departDelay="2.10" arrival="177.00" arrivalLane="E3right3_0" arrivalPos="286.40" arrivalSpeed="13.42" duration="165.00" routeLength="1158.56" waitingTime="66.00" waitingCount="1" stopTime="0.00" timeLoss="79.27" rerouteNo="0" devices="tripinfo_OD374_NV.0" vType="NV" speedFactor="1.00" vaporized=""/>
    <tripinfo id="OD218_NV.0" depart="17.00" departLane="bottom4E0_0" departPos="5.10" departSpeed="10.00" departDelay="0.06" arrival="177.00" arrivalLane="E0bottom4_0" arrivalPos="286.40" arrivalSpeed="12.65" duration="160.00" routeLength="1768.66" waitingTime="14.00" waitingCount="1" stopTime="0.00" timeLoss="29.46" rerouteNo="0" devices="tripinfo_OD218_NV.0" vType="NV" speedFactor="1.00" vaporized=""/>
    <tripinfo id="OD194_NV.0" depart="83.00" departLane="bottom1B0_0" departPos="5.10" departSpeed="10.00" departDelay="1.99" arrival="177.00" arrivalLane="D0bottom3_0" arrivalPos="286.40" arrivalSpeed="13.11" duration="94.00" routeLength="1158.56" waitingTime="0.00" waitingCount="0" stopTime="0.00" timeLoss="8.98" rerouteNo="0" devices="tripinfo_OD194_NV.0" vType="NV" speedFactor="1.00" vaporized=""/>
    <tripinfo id="OD192_NV.0" depart="106.00" departLane="bottom1B0_0" departPos="5.10" departSpeed="10.00" departDelay="0.31" arrival="177.00" arrivalLane="C0bottom2_0" arrivalPos="286.40" arrivalSpeed="13.30" duration="71.00" routeLength="858.56" waitingTime="0.00" waitingCount="0" stopTime="0.00" timeLoss="7.50" rerouteNo="0" devices="tripinfo_OD192_NV.0" vType="NV" speedFactor="1.00" vaporized=""/>
    <tripinfo id="OD370_NV.1" depart="31.00" departLane="right1E1_0" departPos="5.10" departSpeed="10.00" departDelay="1.52" arrival="178.00" arrivalLane="E0bottom4_1" arrivalPos="286.40" arrivalSpeed="12.82" duration="147.00" routeLength="892.21" waitingTime="71.00" waitingCount="1" stopTime="0.00" timeLoss="81.61" rerouteNo="0" devices="tripinfo_OD370_NV.1" vType="NV" speedFactor="1.00" vaporized=""/>
    <tripinfo id="OD167_RV.0" depart="86.00" departLane="left2A2_0" departPos="5.10" departSpeed="10.00" departDelay="0.76" arrival="179.00" arrivalLane="A0left0_0" arrivalPos="286.40" arrivalSpeed="13.34" duration="93.00" routeLength="1158.56" waitingTime="0.00" waitingCount="0" stopTime="0.00" timeLoss="8.22" rerouteNo="0" devices="tripinfo_OD167_RV.0" vType="RV" speedFactor="1.00" vaporized=""/>
    <tripinfo id="OD161_NV.0" depart="108.00" departLane="left2A2_0" departPos="5.10" departSpeed="10.00" departDelay="0.85" arrival="179.00" arrivalLane="A1left1_0" arrivalPos="286.40" arrivalSpeed="13.75" duration="71.00" routeLength="858.56" waitingTime="0.00" waitingCount="0" stopTime="0.00" timeLoss="7.27" rerouteNo="0" devices="tripinfo_OD161_NV.0" vType="NV" speedFactor="1.00" vaporized=""/>
    <tripinfo id="OD372_NV.0" depart="57.00" departLane="right1E1_0" departPos="5.10" departSpeed="10.00" departDelay="0.58" arrival="181.00" arrivalLane="E0right0_2" arrivalPos="286.40" arrivalSpeed="12.55" duration="124.00" routeLength="889.52" waitingTime="47.00" waitingCount="1" stopTime="0.00" timeLoss="58.61" rerouteNo="0" devices="tripinfo_OD372_NV.0" vType="NV" speedFactor="1.00" vaporized=""/>
    <tripinfo id="OD161_NV.1" depart="110.00" departLane="left2A2_0" departPos="5.10" departSpeed="10.00" departDelay="2.36" arrival="182.00" arrivalLane="A1left1_0" arrivalPos="286.40" arrivalSpeed="13.81" duration="72.00" routeLength="858.56" waitingTime="0.00" waitingCount="0" stopTime="0.00" timeLoss="8.31" rerouteNo="0" devices="tripinfo_OD161_NV.1" vType="NV" speedFactor="1.00" vaporized=""/>
    <tripinfo id="OD374_NV.1" depart="60.00" departLane="right1E1_0" departPos="5.10" departSpeed="10.00" departDelay="0.36" arrival="183.00" arrivalLane="E3right3_0" arrivalPos="286.40" arrivalSpeed="13.32" duration="123.00" routeLength="1158.56" waitingTime="24.00" waitingCount="1" stopTime="0.00" timeLoss="38.06" rerouteNo="0" devices="tripinfo_OD374_NV.1" vType="NV" speedFactor="1.00" vaporized=""/>
    <tripinfo id="OD280_NV.0" depart="137.00" departLane="top4E4_0" departPos="5.10" departSpeed="10.00" departDelay="1.40" arrival="184.00" arrivalLane="E4right4_2" arrivalPos="286.40" arrivalSpeed="13.35" duration="47.00" routeLength="592.21" waitingTime="0.00" waitingCount="0" stopTime="0.00" timeLoss="2.96" rerouteNo="0" devices="tripinfo_OD280_NV.0" vType="NV" speedFactor="1.00" vaporized=""/>
    <tripinfo id="OD149_NV.0" depart="7.00" departLane="left0A0_0" departPos="5.10" departSpeed="10.00" departDelay="0.02" arrival="185.00" arrivalLane="A2left2_2" arrivalPos="286.40" arrivalSpeed="13.43" duration="178.00" routeLength="1189.52" waitingTime="74.00" waitingCount="2" stopTime="0.00" timeLoss="90.35" rerouteNo="0" devices="tripinfo_OD149_NV.0" vType="NV" speedFactor="1.00" vaporized=""/>
    <tripinfo id="OD149_NV.1" depart="40.00" departLane="left0A0_0" departPos="5.10" departSpeed="10.00" departDelay="0.33" arrival="187.00" arrivalLane="A2left2_2" arrivalPos="286.40" arrivalSpeed="13.85" duration="147.00" routeLength="1189.52" waitingTime="42.00" waitingCount="2" stopTime="0.00" timeLoss="59.37" rerouteNo="0" devices="tripinfo_OD149_NV.1" vType="NV" speedFactor="1.00" vaporized=""/>
    <tripinfo id="OD374_NV.2" depart="86.00" departLane="right1E1_0" departPos="5.10" departSpeed="10.00" departDelay="0.03" arrival="187.00" arrivalLane="E3right3_0" arrivalPos="286.40" arrivalSpeed="12.89" duration="101.00" routeLength="1158.56" waitingTime="1.00" waitingCount="1" stopTime="0.00" timeLoss="16.31" rerouteNo="0" devices="tripinfo_OD374_NV.2" vType="NV" speedFactor="1.00" vaporized=""/>