<?xml version="1.0" encoding="UTF-8"?>

<!-- generated on 2025-02-20 00:09:37 by Eclipse SUMO sumo Version 1.20.0
<configuration xmlns:xsi="http://www.w3.org/2001/XMLSchema-instance" xsi:noNamespaceSchemaLocation="http://sumo.dlr.de/xsd/sumoConfiguration.xsd">

    <input>
        <net-file value="./envs/5x5/5x5.net.xml"/>
        <route-files value="./envs/5x5/Demand_20.rou.xml"/>
    </input>

    <output>
        <tripinfo-output value="./online_train/5x5\online_train_SAC-top3SV_multi_agents/tripinfo/tripinfo_ep42.xml"/>
    </output>

    <time>
        <begin value="0"/>
    </time>

    <processing>
        <time-to-teleport value="-1"/>
        <waiting-time-memory value="1800"/>
    </processing>

    <report>
        <no-step-log value="true"/>
    </report>

    <traci_server>
        <remote-port value="59109"/>
    </traci_server>

</configuration>
-->

<tripinfos xmlns:xsi="http://www.w3.org/2001/XMLSchema-instance" xsi:noNamespaceSchemaLocation="http://sumo.dlr.de/xsd/tripinfo_file.xsd">
    <tripinfo id="OD310_NV.0" depart="4.00" departLane="left4A4_0" departPos="5.10" departSpeed="10.00" departDelay="1.48" arrival="76.00" arrivalLane="A3left3_0" arrivalPos="286.40" arrivalSpeed="12.54" duration="72.00" routeLength="858.56" waitingTime="0.00" waitingCount="0" stopTime="0.00" timeLoss="8.07" rerouteNo="0" devices="tripinfo_OD310_NV.0" vType="NV" speedFactor="1.00" vaporized=""/>
    <tripinfo id="OD310_NV.1" depart="8.00" departLane="left4A4_0" departPos="5.10" departSpeed="10.00" departDelay="3.20" arrival="79.00" arrivalLane="A3left3_0" arrivalPos="286.40" arrivalSpeed="12.86" duration="71.00" routeLength="858.56" waitingTime="0.00" waitingCount="0" stopTime="0.00" timeLoss="7.05" rerouteNo="0" devices="tripinfo_OD310_NV.1" vType="NV" speedFactor="1.00" vaporized=""/>
    <tripinfo id="OD102_NV.0" depart="37.00" departLane="right4E4_0" departPos="5.10" departSpeed="10.00" departDelay="0.87" arrival="84.00" arrivalLane="E4top4_0" arrivalPos="286.40" arrivalSpeed="13.50" duration="47.00" routeLength="576.73" waitingTime="0.00" waitingCount="0" stopTime="0.00" timeLoss="4.36" rerouteNo="0" devices="tripinfo_OD102_NV.0" vType="NV" speedFactor="1.00" vaporized=""/>
    <tripinfo id="OD129_NV.0" depart="19.00" departLane="left1A1_0" departPos="5.10" departSpeed="10.00" departDelay="0.11" arrival="90.00" arrivalLane="A0left0_0" arrivalPos="286.40" arrivalSpeed="12.81" duration="71.00" routeLength="858.56" waitingTime="0.00" waitingCount="0" stopTime="0.00" timeLoss="7.25" rerouteNo="0" devices="tripinfo_OD129_NV.0" vType="NV" speedFactor="1.00" vaporized=""/>
    <tripinfo id="OD284_NV.0" depart="22.00" departLane="top4E4_0" departPos="5.10" departSpeed="10.00" departDelay="1.14" arrival="92.00" arrivalLane="D4top3_0" arrivalPos="286.40" arrivalSpeed="12.69" duration="70.00" routeLength="858.56" waitingTime="0.00" waitingCount="0" stopTime="0.00" timeLoss="7.13" rerouteNo="0" devices="tripinfo_OD284_NV.0" vType="NV" speedFactor="1.00" vaporized=""/>
    <tripinfo id="OD244_NV.0" depart="9.00" departLane="top0A4_0" departPos="5.10" departSpeed="10.00" departDelay="1.64" arrival="102.00" arrivalLane="A2left2_0" arrivalPos="286.40" arrivalSpeed="13.50" duration="93.00" routeLength="1176.73" waitingTime="0.00" waitingCount="0" stopTime="0.00" timeLoss="6.38" rerouteNo="0" devices="tripinfo_OD244_NV.0" vType="NV" speedFactor="1.00" vaporized=""/>
    <tripinfo id="OD129_RV.0" depart="32.00" departLane="left1A1_0" departPos="5.10" departSpeed="10.00" departDelay="0.10" arrival="102.00" arrivalLane="A0left0_0" arrivalPos="286.40" arrivalSpeed="12.92" duration="70.00" routeLength="858.56" waitingTime="0.00" waitingCount="0" stopTime="0.00" timeLoss="6.68" rerouteNo="0" devices="tripinfo_OD129_RV.0" vType="RV" speedFactor="1.00" vaporized=""/>
    <tripinfo id="OD18_NV.0" depart="11.00" departLane="right3E3_0" departPos="5.10" departSpeed="10.00" departDelay="0.23" arrival="106.00" arrivalLane="D4top3_0" arrivalPos="286.40" arrivalSpeed="13.51" duration="95.00" routeLength="1155.87" waitingTime="0.00" waitingCount="0" stopTime="0.00" timeLoss="8.59" rerouteNo="0" devices="tripinfo_OD18_NV.0" vType="NV" speedFactor="1.00" vaporized=""/>
    <tripinfo id="OD310_NV.2" depart="38.00" departLane="left4A4_0" departPos="5.10" departSpeed="10.00" departDelay="0.76" arrival="109.00" arrivalLane="A3left3_0" arrivalPos="286.40" arrivalSpeed="13.70" duration="71.00" routeLength="858.56" waitingTime="0.00" waitingCount="0" stopTime="0.00" timeLoss="7.71" rerouteNo="0" devices="tripinfo_OD310_NV.2" vType="NV" speedFactor="1.00" vaporized=""/>
    <tripinfo id="OD176_NV.0" depart="40.00" departLane="top3D4_0" departPos="5.10" departSpeed="10.00" departDelay="0.16" arrival="111.00" arrivalLane="C4top2_0" arrivalPos="286.40" arrivalSpeed="12.90" duration="71.00" routeLength="858.56" waitingTime="0.00" waitingCount="0" stopTime="0.00" timeLoss="7.49" rerouteNo="0" devices="tripinfo_OD176_NV.0" vType="NV" speedFactor="1.00" vaporized=""/>
    <tripinfo id="OD59_NV.0" depart="6.00" departLane="bottom3D0_0" departPos="5.10" departSpeed="10.00" departDelay="0.38" arrival="112.00" arrivalLane="C0bottom2_2" arrivalPos="286.40" arrivalSpeed="13.59" duration="106.00" routeLength="889.52" waitingTime="28.00" waitingCount="2" stopTime="0.00" timeLoss="40.39" rerouteNo="0" devices="tripinfo_OD59_NV.0" vType="NV" speedFactor="1.00" vaporized=""/>
    <tripinfo id="OD65_RV.0" depart="48.00" departLane="bottom3D0_0" departPos="5.10" departSpeed="10.00" departDelay="1.05" arrival="119.00" arrivalLane="E0bottom4_0" arrivalPos="286.40" arrivalSpeed="13.57" duration="71.00" routeLength="858.56" waitingTime="0.00" waitingCount="0" stopTime="0.00" timeLoss="7.95" rerouteNo="0" devices="tripinfo_OD65_RV.0" vType="RV" speedFactor="1.00" vaporized=""/>
    <tripinfo id="OD50_NV.0" depart="49.00" departLane="right2E2_0" departPos="5.10" departSpeed="10.00" departDelay="0.93" arrival="120.00" arrivalLane="E3right3_0" arrivalPos="286.40" arrivalSpeed="12.96" duration="71.00" routeLength="858.56" waitingTime="0.00" waitingCount="0" stopTime="0.00" timeLoss="7.22" rerouteNo="0" devices="tripinfo_OD50_NV.0" vType="NV" speedFactor="1.00" vaporized=""/>
    <tripinfo id="OD21_RV.0" depart="16.00" departLane="top2C4_0" departPos="5.10" departSpeed="10.00" departDelay="0.63" arrival="121.00" arrivalLane="A4left4_1" arrivalPos="286.40" arrivalSpeed="13.80" duration="105.00" routeLength="1176.73" waitingTime="6.00" waitingCount="1" stopTime="0.00" timeLoss="19.35" rerouteNo="0" devices="tripinfo_OD21_RV.0" vType="RV" speedFactor="1.00" vaporized=""/>
    <tripinfo id="OD65_NV.0" depart="54.00" departLane="bottom3D0_0" departPos="5.10" departSpeed="10.00" departDelay="0.88" arrival="125.00" arrivalLane="E0bottom4_0" arrivalPos="286.40" arrivalSpeed="12.52" duration="71.00" routeLength="858.56" waitingTime="0.00" waitingCount="0" stopTime="0.00" timeLoss="7.92" rerouteNo="0" devices="tripinfo_OD65_NV.0" vType="NV" speedFactor="1.00" vaporized=""/>
    <tripinfo id="OD284_NV.1" depart="54.00" departLane="top4E4_0" departPos="5.10" departSpeed="10.00" departDelay="0.77" arrival="125.00" arrivalLane="D4top3_0" arrivalPos="286.40" arrivalSpeed="13.22" duration="71.00" routeLength="858.56" waitingTime="0.00" waitingCount="0" stopTime="0.00" timeLoss="7.53" rerouteNo="0" devices="tripinfo_OD284_NV.1" vType="NV" speedFactor="1.00" vaporized=""/>
    <tripinfo id="OD288_RV.0" depart="59.00" departLane="top1B4_0" departPos="5.10" departSpeed="10.00" departDelay="1.65" arrival="129.00" arrivalLane="A4left4_1" arrivalPos="286.40" arrivalSpeed="12.69" duration="70.00" routeLength="876.73" waitingTime="0.00" waitingCount="0" stopTime="0.00" timeLoss="5.58" rerouteNo="0" devices="tripinfo_OD288_RV.0" vType="RV" speedFactor="1.00" vaporized=""/>
    <tripinfo id="OD291_NV.0" depart="3.00" departLane="top1B4_0" departPos="5.10" departSpeed="10.00" departDelay="0.51" arrival="131.00" arrivalLane="A3left3_1" arrivalPos="286.40" arrivalSpeed="12.71" duration="128.00" routeLength="1176.73" waitingTime="27.00" waitingCount="2" stopTime="0.00" timeLoss="42.40" rerouteNo="0" devices="tripinfo_OD291_NV.0" vType="NV" speedFactor="1.00" vaporized=""/>
    <tripinfo id="OD205_NV.0" depart="12.00" departLane="bottom1B0_0" departPos="5.10" departSpeed="10.00" departDelay="2.02" arrival="133.00" arrivalLane="A0left0_1" arrivalPos="286.40" arrivalSpeed="12.89" duration="121.00" routeLength="892.21" waitingTime="43.00" waitingCount="1" stopTime="0.00" timeLoss="55.46" rerouteNo="0" devices="tripinfo_OD205_NV.0" vType="NV" speedFactor="1.00" vaporized=""/>
    <tripinfo id="OD113_NV.0" depart="35.00" departLane="right4E4_0" departPos="5.10" departSpeed="10.00" departDelay="0.56" arrival="133.00" arrivalLane="D4top3_0" arrivalPos="286.40" arrivalSpeed="12.78" duration="98.00" routeLength="876.73" waitingTime="22.00" waitingCount="1" stopTime="0.00" timeLoss="33.66" rerouteNo="0" devices="tripinfo_OD113_NV.0" vType="NV" speedFactor="1.00" vaporized=""/>
    <tripinfo id="OD50_NV.1" depart="61.00" departLane="right2E2_0" departPos="5.10" departSpeed="10.00" departDelay="1.59" arrival="133.00" arrivalLane="E3right3_0" arrivalPos="286.40" arrivalSpeed="12.42" duration="72.00" routeLength="858.56" waitingTime="0.00" waitingCount="0" stopTime="0.00" timeLoss="8.63" rerouteNo="0" devices="tripinfo_OD50_NV.1" vType="NV" speedFactor="1.00" vaporized=""/>
    <tripinfo id="OD184_NV.0" depart="25.00" departLane="top3D4_0" departPos="5.10" departSpeed="10.00" departDelay="5.03" arrival="134.00" arrivalLane="B4top1_0" arrivalPos="286.40" arrivalSpeed="13.56" duration="109.00" routeLength="1158.56" waitingTime="8.00" waitingCount="1" stopTime="0.00" timeLoss="24.09" rerouteNo="0" devices="tripinfo_OD184_NV.0" vType="NV" speedFactor="1.00" vaporized=""/>
    <tripinfo id="OD76_NV.0" depart="65.00" departLane="right0E0_0" departPos="5.10" departSpeed="10.00" departDelay="0.41" arrival="135.00" arrivalLane="E1right1_0" arrivalPos="286.40" arrivalSpeed="13.36" duration="70.00" routeLength="858.56" waitingTime="0.00" waitingCount="0" stopTime="0.00" timeLoss="6.49" rerouteNo="0" devices="tripinfo_OD76_NV.0" vType="NV" speedFactor="1.00" vaporized=""/>
    <tripinfo id="OD353_RV.0" depart="6.00" departLane="bottom2C0_0" departPos="5.10" departSpeed="10.00" departDelay="3.40" arrival="136.00" arrivalLane="E0right0_1" arrivalPos="286.40" arrivalSpeed="12.98" duration="130.00" routeLength="1176.73" waitingTime="26.00" waitingCount="2" stopTime="0.00" timeLoss="43.44" rerouteNo="0" devices="tripinfo_OD353_RV.0" vType="RV" speedFactor="1.00" vaporized=""/>
    <tripinfo id="OD45_NV.0" depart="6.00" departLane="right2E2_0" departPos="5.10" departSpeed="10.00" departDelay="0.70" arrival="137.00" arrivalLane="E4top4_1" arrivalPos="286.40" arrivalSpeed="13.20" duration="131.00" routeLength="1176.73" waitingTime="30.00" waitingCount="1" stopTime="0.00" timeLoss="45.66" rerouteNo="0" devices="tripinfo_OD45_NV.0" vType="NV" speedFactor="1.00" vaporized=""/>
    <tripinfo id="OD184_RV.0" depart="29.00" departLane="top3D4_0" departPos="5.10" departSpeed="10.00" departDelay="1.79" arrival="138.00" arrivalLane="B4top1_0" arrivalPos="286.40" arrivalSpeed="13.74" duration="109.00" routeLength="1158.56" waitingTime="5.00" waitingCount="1" stopTime="0.00" timeLoss="23.11" rerouteNo="0" devices="tripinfo_OD184_RV.0" vType="RV" speedFactor="1.00" vaporized=""/>
    <tripinfo id="OD50_NV.2" depart="71.00" departLane="right2E2_0" departPos="5.10" departSpeed="10.00" departDelay="0.74" arrival="141.00" arrivalLane="E3right3_0" arrivalPos="286.40" arrivalSpeed="12.68" duration="70.00" routeLength="858.56" waitingTime="0.00" waitingCount="0" stopTime="0.00" timeLoss="6.97" rerouteNo="0" devices="tripinfo_OD50_NV.2" vType="NV" speedFactor="1.00" vaporized=""/>
    <tripinfo id="OD158_NV.0" depart="4.00" departLane="left2A2_0" departPos="5.10" departSpeed="10.00" departDelay="0.74" arrival="143.00" arrivalLane="A3left3_2" arrivalPos="286.40" arrivalSpeed="12.64" duration="139.00" routeLength="889.52" waitingTime="61.00" waitingCount="2" stopTime="0.00" timeLoss="73.87" rerouteNo="0" devices="tripinfo_OD158_NV.0" vType="NV" speedFactor="1.00" vaporized=""/>
    <tripinfo id="OD158_NV.1" depart="13.00" departLane="left2A2_0" departPos="5.10" departSpeed="10.00" departDelay="1.11" arrival="145.00" arrivalLane="A3left3_2" arrivalPos="286.40" arrivalSpeed="12.45" duration="132.00" routeLength="889.52" waitingTime="54.00" waitingCount="2" stopTime="0.00" timeLoss="66.76" rerouteNo="0" devices="tripinfo_OD158_NV.1" vType="NV" speedFactor="1.00" vaporized=""/>
    <tripinfo id="OD320_NV.0" depart="28.00" departLane="left4A4_0" departPos="5.10" departSpeed="10.00" departDelay="1.49" arrival="145.00" arrivalLane="A2left2_0" arrivalPos="286.40" arrivalSpeed="13.01" duration="117.00" routeLength="1158.56" waitingTime="17.00" waitingCount="1" stopTime="0.00" timeLoss="31.67" rerouteNo="0" devices="tripinfo_OD320_NV.0" vType="NV" speedFactor="1.00" vaporized=""/>
    <tripinfo id="OD176_NV.1" depart="76.00" departLane="top3D4_0" departPos="5.10" departSpeed="10.00" departDelay="1.17" arrival="146.00" arrivalLane="C4top2_0" arrivalPos="286.40" arrivalSpeed="13.81" duration="70.00" routeLength="858.56" waitingTime="0.00" waitingCount="0" stopTime="0.00" timeLoss="7.20" rerouteNo="0" devices="tripinfo_OD176_NV.1" vType="NV" speedFactor="1.00" vaporized=""/>
    <tripinfo id="OD7_NV.0" depart="77.00" departLane="right3E3_0" departPos="5.10" departSpeed="10.00" departDelay="0.10" arrival="146.00" arrivalLane="E4top4_1" arrivalPos="286.40" arrivalSpeed="13.66" duration="69.00" routeLength="876.73" waitingTime="0.00" waitingCount="0" stopTime="0.00" timeLoss="4.63" rerouteNo="0" devices="tripinfo_OD7_NV.0" vType="NV" speedFactor="1.00" vaporized=""/>
    <tripinfo id="OD257_RV.0" depart="12.00" departLane="left3A3_0" departPos="5.10" departSpeed="10.00" departDelay="1.82" arrival="148.00" arrivalLane="A1left1_0" arrivalPos="286.40" arrivalSpeed="13.67" duration="136.00" routeLength="1158.56" waitingTime="37.00" waitingCount="1" stopTime="0.00" timeLoss="50.26" rerouteNo="0" devices="tripinfo_OD257_RV.0" vType="RV" speedFactor="1.00" vaporized=""/>
    <tripinfo id="OD368_NV.0" depart="78.00" departLane="right1E1_0" departPos="5.10" departSpeed="10.00" departDelay="0.11" arrival="149.00" arrivalLane="E2right2_0" arrivalPos="286.40" arrivalSpeed="13.16" duration="71.00" routeLength="858.56" waitingTime="0.00" waitingCount="0" stopTime="0.00" timeLoss="7.45" rerouteNo="0" devices="tripinfo_OD368_NV.0" vType="NV" speedFactor="1.00" vaporized=""/>
    <tripinfo id="OD131_NV.0" depart="80.00" departLane="left1A1_0" departPos="5.10" departSpeed="10.00" departDelay="0.33" arrival="149.00" arrivalLane="A0bottom0_1" arrivalPos="286.40" arrivalSpeed="12.43" duration="69.00" routeLength="876.73" waitingTime="0.00" waitingCount="0" stopTime="0.00" timeLoss="5.00" rerouteNo="0" devices="tripinfo_OD131_NV.0" vType="NV" speedFactor="1.00" vaporized=""/>
    <tripinfo id="OD257_NV.0" depart="38.00" departLane="left3A3_0" departPos="5.10" departSpeed="10.00" departDelay="0.13" arrival="150.00" arrivalLane="A1left1_0" arrivalPos="286.40" arrivalSpeed="13.43" duration="112.00" routeLength="1158.56" waitingTime="14.00" waitingCount="1" stopTime="0.00" timeLoss="27.42" rerouteNo="0" devices="tripinfo_OD257_NV.0" vType="NV" speedFactor="1.00" vaporized=""/>
    <tripinfo id="OD52_NV.0" depart="59.00" departLane="right2E2_0" departPos="5.10" departSpeed="10.00" departDelay="0.01" arrival="152.00" arrivalLane="E4right4_0" arrivalPos="286.40" arrivalSpeed="12.74" duration="93.00" routeLength="1158.56" waitingTime="0.00" waitingCount="0" stopTime="0.00" timeLoss="7.98" rerouteNo="0" devices="tripinfo_OD52_NV.0" vType="NV" speedFactor="1.00" vaporized=""/>
    <tripinfo id="OD310_NV.3" depart="82.00" departLane="left4A4_0" departPos="5.10" departSpeed="10.00" departDelay="0.90" arrival="153.00" arrivalLane="A3left3_0" arrivalPos="286.40" arrivalSpeed="13.80" duration="71.00" routeLength="858.56" waitingTime="0.00" waitingCount="0" stopTime="0.00" timeLoss="7.24" rerouteNo="0" devices="tripinfo_OD310_NV.3" vType="NV" speedFactor="1.00" vaporized=""/>
    <tripinfo id="OD14_NV.0" depart="90.00" departLane="right3E3_0" departPos="5.10" departSpeed="10.00" departDelay="0.85" arrival="161.00" arrivalLane="E4right4_0" arrivalPos="286.40" arrivalSpeed="13.59" duration="71.00" routeLength="858.56" waitingTime="0.00" waitingCount="0" stopTime="0.00" timeLoss="7.86" rerouteNo="0" devices="tripinfo_OD14_NV.0" vType="NV" speedFactor="1.00" vaporized=""/>
    <tripinfo id="OD199_NV.0" depart="16.00" departLane="bottom1B0_0" departPos="5.10" departSpeed="10.00" departDelay="3.02" arrival="164.00" arrivalLane="E0bottom4_0" arrivalPos="286.40" arrivalSpeed="13.69" duration="148.00" routeLength="1458.56" waitingTime="19.00" waitingCount="2" stopTime="0.00" timeLoss="41.53" rerouteNo="0" devices="tripinfo_OD199_NV.0" vType="NV" speedFactor="1.00" vaporized=""/>
    <tripinfo id="OD353_RV.1" depart="64.00" departLane="bottom2C0_0" departPos="5.10" departSpeed="10.00" departDelay="0.22" arrival="166.00" arrivalLane="E0right0_1" arrivalPos="286.40" arrivalSpeed="13.56" duration="102.00" routeLength="1176.73" waitingTime="4.00" waitingCount="1" stopTime="0.00" timeLoss="15.98" rerouteNo="0" devices="tripinfo_OD353_RV.1" vType="RV" speedFactor="1.00" vaporized=""/>
    <tripinfo id="OD116_NV.0" depart="14.00" departLane="left1A1_0" departPos="5.10" departSpeed="10.00" departDelay="0.19" arrival="171.00" arrivalLane="C0bottom2_0" arrivalPos="286.40" arrivalSpeed="13.77" duration="157.00" routeLength="1455.87" waitingTime="30.00" waitingCount="1" stopTime="0.00" timeLoss="49.90" rerouteNo="0" devices="tripinfo_OD116_NV.0" vType="NV" speedFactor="1.00" vaporized=""/>
    <tripinfo id="OD200_RV.0" depart="56.00" departLane="bottom1B0_0" departPos="5.10" departSpeed="10.00" departDelay="0.93" arrival="171.00" arrivalLane="E0right0_1" arrivalPos="286.40" arrivalSpeed="12.89" duration="115.00" routeLength="1476.73" waitingTime="0.00" waitingCount="0" stopTime="0.00" timeLoss="8.28" rerouteNo="0" devices="tripinfo_OD200_RV.0" vType="RV" speedFactor="1.00" vaporized=""/>
    <tripinfo id="OD374_NV.0" depart="12.00" departLane="right1E1_0" departPos="5.10" departSpeed="10.00" departDelay="2.10" arrival="172.00" arrivalLane="E3right3_0" arrivalPos="286.40" arrivalSpeed="12.85" duration="160.00" routeLength="1158.56" waitingTime="60.00" waitingCount="1" stopTime="0.00" timeLoss="74.96" rerouteNo="0" devices="tripinfo_OD374_NV.0" vType="NV" speedFactor="1.00" vaporized=""/>
    <tripinfo id="OD158_RV.0" depart="83.00" departLane="left2A2_0" departPos="5.10" departSpeed="10.00" departDelay="2.78" arrival="172.00" arrivalLane="A3left3_2" arrivalPos="286.40" arrivalSpeed="12.85" duration="89.00" routeLength="889.52" waitingTime="9.00" waitingCount="2" stopTime="0.00" timeLoss="23.66" rerouteNo="0" devices="tripinfo_OD158_RV.0" vType="RV" speedFactor="1.00" vaporized=""/>
    <tripinfo id="OD368_NV.1" depart="101.00" departLane="right1E1_0" departPos="5.10" departSpeed="10.00" departDelay="0.86" arrival="172.00" arrivalLane="E2right2_0" arrivalPos="286.40" arrivalSpeed="13.68" duration="71.00" routeLength="858.56" waitingTime="0.00" waitingCount="0" stopTime="0.00" timeLoss="7.34" rerouteNo="0" devices="tripinfo_OD368_NV.1" vType="NV" speedFactor="1.00" vaporized=""/>
    <tripinfo id="OD310_NV.4" depart="101.00" departLane="left4A4_0" departPos="5.10" departSpeed="10.00" departDelay="0.28" arrival="172.00" arrivalLane="A3left3_0" arrivalPos="286.40" arrivalSpeed="13.37" duration="71.00" routeLength="858.56" waitingTime="0.00" waitingCount="0" stopTime="0.00" timeLoss="7.60" rerouteNo="0" devices="tripinfo_OD310_NV.4" vType="NV" speedFactor="1.00" vaporized=""/>
    <tripinfo id="OD21_RV.1" depart="36.00" departLane="top2C4_0" departPos="5.10" departSpeed="10.00" departDelay="0.64" arrival="173.00" arrivalLane="A4left4_1" arrivalPos="286.40" arrivalSpeed="12.61" duration="137.00" routeLength="1176.73" waitingTime="36.00" waitingCount="2" stopTime="0.00" timeLoss="51.64" rerouteNo="0" devices="tripinfo_OD21_RV.1" vType="RV" speedFactor="1.00" vaporized=""/>
    <tripinfo id="OD158_NV.2" depart="87.00" departLane="left2A2_0" departPos="5.10" departSpeed="10.00" departDelay="0.34" arrival="174.00" arrivalLane="A3left3_2" arrivalPos="286.40" arrivalSpeed="13.33" duration="87.00" routeLength="889.52" waitingTime="7.00" waitingCount="2" stopTime="0.00" timeLoss="21.43" rerouteNo="0" devices="tripinfo_OD158_NV.2" vType="NV" speedFactor="1.00" vaporized=""/>
    <tripinfo id="OD174_NV.0" depart="19.00" departLane="top3D4_0" departPos="5.10" departSpeed="10.00" departDelay="0.66" arrival="175.00" arrivalLane="A4left4_1" arrivalPos="286.40" arrivalSpeed="13.83" duration="156.00" routeLength="1476.73" waitingTime="27.00" waitingCount="2" stopTime="0.00" timeLoss="48.85" rerouteNo="0" devices="tripinfo_OD174_NV.0" vType="NV" speedFactor="1.00" vaporized=""/>
    <tripinfo id="OD76_NV.1" depart="104.00" departLane="right0E0_0" departPos="5.10" departSpeed="10.00" departDelay="0.91" arrival="175.00" arrivalLane="E1right1_0" arrivalPos="286.40" arrivalSpeed="13.87" duration="71.00" routeLength="858.56" waitingTime="0.00" waitingCount="0" stopTime="0.00" timeLoss="7.21" rerouteNo="0" devices="tripinfo_OD76_NV.1" vType="NV" speedFactor="1.00" vaporized=""/>
    <tripinfo id="OD174_NV.1" depart="23.00" departLane="top3D4_0" departPos="5.10" departSpeed="10.00" departDelay="3.67" arrival="177.00" arrivalLane="A4left4_1" arrivalPos="286.40" arrivalSpeed="13.89" duration="154.00" routeLength="1476.73" waitingTime="22.00" waitingCount="2" stopTime="0.00" timeLoss="46.56" rerouteNo="0" devices="tripinfo_OD174_NV.1" vType="NV" speedFactor="1.00" vaporized=""/>
    <tripinfo id="OD192_NV.0" depart="106.00" departLane="bottom1B0_0" departPos="5.10" departSpeed="10.00" departDelay="0.31" arrival="177.00" arrivalLane="C0bottom2_0" arrivalPos="286.40" arrivalSpeed="13.21" duration="71.00" routeLength="858.56" waitingTime="0.00" waitingCount="0" stopTime="0.00" timeLoss="7.16" rerouteNo="0" devices="tripinfo_OD192_NV.0" vType="NV" speedFactor="1.00" vaporized=""/>
    <tripinfo id="OD84_NV.0" depart="130.00" departLane="right0E0_0" departPos="5.10" departSpeed="10.00" departDelay="0.30" arrival="178.00" arrivalLane="E0bottom4_2" arrivalPos="286.40" arrivalSpeed="13.65" duration="48.00" routeLength="592.21" waitingTime="0.00" waitingCount="0" stopTime="0.00" timeLoss="4.06" rerouteNo="0" devices="tripinfo_OD84_NV.0" vType="NV" speedFactor="1.00" vaporized=""/>
    <tripinfo id="OD348_RV.0" depart="8.00" departLane="bottom2C0_0" departPos="5.10" departSpeed="10.00" departDelay="3.48" arrival="179.00" arrivalLane="A3left3_2" arrivalPos="286.40" arrivalSpeed="13.46" duration="171.00" routeLength="2050.49" waitingTime="2.00" waitingCount="1" stopTime="0.00" timeLoss="20.95" rerouteNo="0" devices="tripinfo_OD348_RV.0" vType="RV" speedFactor="1.00" vaporized=""/>
    <tripinfo id="OD161_NV.0" depart="108.00" departLane="left2A2_0" departPos="5.10" departSpeed="10.00" departDelay="0.85" arrival="179.00" arrivalLane="A1left1_0" arrivalPos="286.40" arrivalSpeed="13.85" duration="71.00" routeLength="858.56" waitingTime="0.00" waitingCount="0" stopTime="0.00" timeLoss="7.61" rerouteNo="0" devices="tripinfo_OD161_NV.0" vType="NV" speedFactor="1.00" vaporized=""/>
    <tripinfo id="OD244_NV.1" depart="45.00" departLane="top0A4_0" departPos="5.10" departSpeed="10.00" departDelay="0.91" arrival="181.00" arrivalLane="A2left2_0" arrivalPos="286.40" arrivalSpeed="13.59" duration="136.00" routeLength="1176.73" waitingTime="34.00" waitingCount="2" stopTime="0.00" timeLoss="50.41" rerouteNo="0" devices="tripinfo_OD244_NV.1" vType="NV" speedFactor="1.00" vaporized=""/>
    <tripinfo id="OD161_NV.1" depart="110.00" departLane="left2A2_0" departPos="5.10" departSpeed="10.00" departDelay="2.36" arrival="182.00" arrivalLane="A1left1_0" arrivalPos="286.40" arrivalSpeed="12.63" duration="72.00" routeLength="858.56" waitingTime="0.00" waitingCount="0" stopTime="0.00" timeLoss="7.92" rerouteNo="0" devices="tripinfo_OD161_NV.1" vType="NV" speedFactor="1.00" vaporized=""/>
    <tripinfo id="OD63_NV.0" depart="55.00" departLane="bottom3D0_0" departPos="5.10" departSpeed="10.00" departDelay="0.81" arrival="183.00" arrivalLane="E2right2_1" arrivalPos="286.40" arrivalSpeed="12.91" duration="128.00" routeLength="1476.73" waitingTime="6.00" waitingCount="1" stopTime="0.00" timeLoss="20.33" rerouteNo="0" devices="tripinfo_OD63_NV.0" vType="NV" speedFactor="1.00" vaporized=""/>
    <tripinfo id="OD169_RV.0" depart="7.00" departLane="left2A2_0" departPos="5.10" departSpeed="10.00" departDelay="0.60" arrival="185.00" arrivalLane="A0bottom0_1" arrivalPos="286.40" arrivalSpeed="12.79" duration="178.00" routeLength="1176.73" waitingTime="77.00" waitingCount="2" stopTime="0.00" timeLoss="91.93" rerouteNo="0" devices="tripinfo_OD169_RV.0" vType="RV" speedFactor="1.00" vaporized=""/>
    <tripinfo id="OD63_NV.1" depart="57.00" departLane="bottom3D0_0" departPos="5.10" departSpeed="10.00" departDelay="0.93" arrival="185.00" arrivalLane="E2right2_1" arrivalPos="286.40" arrivalSpeed="13.72" duration="128.00" routeLength="1476.73" waitingTime="5.00" waitingCount="1" stopTime="0.00" timeLoss="20.43" rerouteNo="0" devices="tripinfo_OD63_NV.1" vType="NV" speedFactor="1.00" vaporized=""/>
    <tripinfo id="OD194_NV.0" depart="84.00" departLane="bottom1B0_0" departPos="5.10" departSpeed="10.00" departDelay="2.99" arrival="186.00" arrivalLane="D0bottom3_0" arrivalPos="286.40" arrivalSpeed="12.93" duration="102.00" routeLength="1158.56" waitingTime="3.00" waitingCount="1" stopTime="0.00" timeLoss="16.25" rerouteNo="0" devices="tripinfo_OD194_NV.0" vType="NV" speedFactor="1.00" vaporized=""/>
    <tripinfo id="OD169_NV.0" depart="17.00" departLane="left2A2_0" departPos="5.10" departSpeed="10.00" departDelay="0.59" arrival="187.00" arrivalLane="A0bottom0_1" arrivalPos="286.40" arrivalSpeed="12.55" duration="170.00" routeLength="1176.73" waitingTime="66.00" waitingCount="2" stopTime="0.00" timeLoss="84.05" rerouteNo="0" devices="tripinfo_OD169_NV.0" vType="NV" speedFactor="1.00" vaporized=""/>
    <tripinfo id="OD127_RV.0" depart="46.00" departLane="left1A1_0" departPos="5.10" departSpeed="10.00" departDelay="0.85" arrival="187.00" arrivalLane="B4top1_1" arrivalPos="286.40" arrivalSpeed="12.77" duration="141.00" routeLength="1771.35" waitingTime="0.00" waitingCount="0" stopTime="0.00" timeLoss="10.84" rerouteNo="0" devices="tripinfo_OD127_RV.0" vType="RV" speedFactor="1.00" vaporized=""/>
    <tripinfo id="OD320_NV.1" depart="75.00" departLane="left4A4_0" departPos="5.10" departSpeed="10.00" departDelay="0.44" arrival="187.00" arrivalLane="A2left2_0" arrivalPos="286.40" arrivalSpeed="13.83" duration="112.00" routeLength="1158.56" waitingTime="11.00" waitingCount="1" stopTime="0.00" timeLoss="26.37" rerouteNo="0" devices="tripinfo_OD320_NV.1" vType="NV" speedFactor="1.00" vaporized=""/>
    <tripinfo id="OD169_NV.1" depart="46.00" departLane="left2A2_0" departPos="5.10" departSpeed="10.00" departDelay="0.47" arrival="188.00" arrivalLane="A0bottom0_1" arrivalPos="286.40" arrivalSpeed="13.27" duration="142.00" routeLength="1176.73" waitingTime="38.00" waitingCount="2" stopTime="0.00" timeLoss="56.79" rerouteNo="0" devices="tripinfo_OD169_NV.1" vType="NV" speedFactor="1.00" vaporized=""/>
    <tripinfo id="OD271_NV.0" depart="92.00" departLane="top4E4_0" departPos="5.10" departSpeed="10.00" departDelay="0.79" arrival="188.00" arrivalLane="C4top2_0" arrivalPos="286.40" arrivalSpeed="13.05" duration="96.00" routeLength="1158.56" waitingTime="0.00" waitingCount="0" stopTime="0.00" timeLoss="11.09" rerouteNo="0" devices="tripinfo_OD271_NV.0" vType="NV" speedFactor="1.00" vaporized=""/>
    <tripinfo id="OD286_NV.0" depart="117.00" departLane="top1B4_0" departPos="5.10" departSpeed="10.00" departDelay="0.84" arrival="188.00" arrivalLane="A4top0_0" arrivalPos="286.40" arrivalSpeed="12.89" duration="71.00" routeLength="858.56" waitingTime="0.00" waitingCount="0" stopTime="0.00" timeLoss="7.49" rerouteNo="0" devices="tripinfo_OD286_NV.0" vType="NV" speedFactor="1.00" vaporized=""/>
    <tripinfo id="OD189_RV.0" depart="8.00" departLane="top3D4_0" departPos="5.10" departSpeed="10.00" departDelay="0.02" arrival="189.00" arrivalLane="D4top3_1" arrivalPos="286.40" arrivalSpeed="12.39" duration="181.00" routeLength="1737.70" waitingTime="36.00" waitingCount="1" stopTime="0.00" timeLoss="53.09" rerouteNo="0" devices="tripinfo_OD189_RV.0" vType="RV" speedFactor="1.00" vaporized=""/>
    <tripinfo id="OD107_RV.0" depart="52.00" departLane="right4E4_0" departPos="5.10" departSpeed="10.00" departDelay="0.99" arrival="189.00" arrivalLane="E3right3_2" arrivalPos="286.40" arrivalSpeed="13.63" duration="137.00" routeLength="889.52" waitingTime="62.00" waitingCount="1" stopTime="0.00" timeLoss="71.09" rerouteNo="0" devices="tripinfo_OD107_RV.0" vType="RV" speedFactor="1.00" vaporized=""/>
    <tripinfo id="OD264_NV.0" depart="6.00" departLane="left3A3_0" departPos="5.10" departSpeed="10.00" departDelay="0.30" arrival="190.00" arrivalLane="A0bottom0_1" arrivalPos="286.40" arrivalSpeed="12.96" duration="184.00" routeLength="1476.73" waitingTime="51.00" waitingCount="3" stopTime="0.00" timeLoss="76.48" rerouteNo="0" devices="tripinfo_OD264_NV.0" vType="NV" speedFactor="1.00" vaporized=""/>