<?xml version="1.0" encoding="UTF-8"?>

<!-- generated on 2025-02-20 14:31:29 by Eclipse SUMO sumo Version 1.20.0
<configuration xmlns:xsi="http://www.w3.org/2001/XMLSchema-instance" xsi:noNamespaceSchemaLocation="http://sumo.dlr.de/xsd/sumoConfiguration.xsd">

    <input>
        <net-file value="./envs/5x5/5x5.net.xml"/>
        <route-files value="./envs/5x5/Demand_20.rou.xml"/>
    </input>

    <output>
        <tripinfo-output value="./online_train/5x5\online_train_SAC-top3SV_multi_agents/tripinfo/tripinfo_ep83.xml"/>
    </output>

    <time>
        <begin value="0"/>
    </time>

    <processing>
        <time-to-teleport value="-1"/>
        <waiting-time-memory value="1800"/>
    </processing>

    <report>
        <no-step-log value="true"/>
    </report>

    <traci_server>
        <remote-port value="62049"/>
    </traci_server>

</configuration>
-->

<tripinfos xmlns:xsi="http://www.w3.org/2001/XMLSchema-instance" xsi:noNamespaceSchemaLocation="http://sumo.dlr.de/xsd/tripinfo_file.xsd">
    <tripinfo id="OD310_NV.0" depart="4.00" departLane="left4A4_0" departPos="5.10" departSpeed="10.00" departDelay="1.48" arrival="76.00" arrivalLane="A3left3_0" arrivalPos="286.40" arrivalSpeed="13.27" duration="72.00" routeLength="858.56" waitingTime="0.00" waitingCount="0" stopTime="0.00" timeLoss="8.04" rerouteNo="0" devices="tripinfo_OD310_NV.0" vType="NV" speedFactor="1.00" vaporized=""/>
    <tripinfo id="OD310_NV.1" depart="8.00" departLane="left4A4_0" departPos="5.10" departSpeed="10.00" departDelay="3.20" arrival="79.00" arrivalLane="A3left3_0" arrivalPos="286.40" arrivalSpeed="12.77" duration="71.00" routeLength="858.56" waitingTime="0.00" waitingCount="0" stopTime="0.00" timeLoss="7.53" rerouteNo="0" devices="tripinfo_OD310_NV.1" vType="NV" speedFactor="1.00" vaporized=""/>
    <tripinfo id="OD38_NV.0" depart="8.00" departLane="right2E2_0" departPos="5.10" departSpeed="10.00" departDelay="1.45" arrival="83.00" arrivalLane="E1right1_2" arrivalPos="286.40" arrivalSpeed="13.38" duration="75.00" routeLength="889.52" waitingTime="0.00" waitingCount="0" stopTime="0.00" timeLoss="8.88" rerouteNo="0" devices="tripinfo_OD38_NV.0" vType="NV" speedFactor="1.00" vaporized=""/>
    <tripinfo id="OD102_NV.0" depart="37.00" departLane="right4E4_0" departPos="5.10" departSpeed="10.00" departDelay="0.87" arrival="84.00" arrivalLane="E4top4_0" arrivalPos="286.40" arrivalSpeed="13.09" duration="47.00" routeLength="576.73" waitingTime="0.00" waitingCount="0" stopTime="0.00" timeLoss="4.18" rerouteNo="0" devices="tripinfo_OD102_NV.0" vType="NV" speedFactor="1.00" vaporized=""/>
    <tripinfo id="OD129_NV.0" depart="19.00" departLane="left1A1_0" departPos="5.10" departSpeed="10.00" departDelay="0.11" arrival="90.00" arrivalLane="A0left0_0" arrivalPos="286.40" arrivalSpeed="13.59" duration="71.00" routeLength="858.56" waitingTime="0.00" waitingCount="0" stopTime="0.00" timeLoss="7.84" rerouteNo="0" devices="tripinfo_OD129_NV.0" vType="NV" speedFactor="1.00" vaporized=""/>
    <tripinfo id="OD284_NV.0" depart="22.00" departLane="top4E4_0" departPos="5.10" departSpeed="10.00" departDelay="1.14" arrival="93.00" arrivalLane="D4top3_0" arrivalPos="286.40" arrivalSpeed="13.13" duration="71.00" routeLength="858.56" waitingTime="0.00" waitingCount="0" stopTime="0.00" timeLoss="7.52" rerouteNo="0" devices="tripinfo_OD284_NV.0" vType="NV" speedFactor="1.00" vaporized=""/>
    <tripinfo id="OD129_RV.0" depart="32.00" departLane="left1A1_0" departPos="5.10" departSpeed="10.00" departDelay="0.10" arrival="102.00" arrivalLane="A0left0_0" arrivalPos="286.40" arrivalSpeed="12.76" duration="70.00" routeLength="858.56" waitingTime="0.00" waitingCount="0" stopTime="0.00" timeLoss="6.62" rerouteNo="0" devices="tripinfo_OD129_RV.0" vType="RV" speedFactor="1.00" vaporized=""/>
    <tripinfo id="OD365_NV.0" depart="7.00" departLane="right1E1_0" departPos="5.10" departSpeed="10.00" departDelay="0.05" arrival="105.00" arrivalLane="D0bottom3_1" arrivalPos="286.40" arrivalSpeed="12.52" duration="98.00" routeLength="1192.21" waitingTime="0.00" waitingCount="0" stopTime="0.00" timeLoss="10.72" rerouteNo="0" devices="tripinfo_OD365_NV.0" vType="NV" speedFactor="1.00" vaporized=""/>
    <tripinfo id="OD291_NV.0" depart="3.00" departLane="top1B4_0" departPos="5.10" departSpeed="10.00" departDelay="0.51" arrival="108.00" arrivalLane="A3left3_1" arrivalPos="286.40" arrivalSpeed="12.75" duration="105.00" routeLength="1176.73" waitingTime="7.00" waitingCount="1" stopTime="0.00" timeLoss="19.21" rerouteNo="0" devices="tripinfo_OD291_NV.0" vType="NV" speedFactor="1.00" vaporized=""/>
    <tripinfo id="OD310_NV.2" depart="38.00" departLane="left4A4_0" departPos="5.10" departSpeed="10.00" departDelay="0.76" arrival="109.00" arrivalLane="A3left3_0" arrivalPos="286.40" arrivalSpeed="13.40" duration="71.00" routeLength="858.56" waitingTime="0.00" waitingCount="0" stopTime="0.00" timeLoss="7.85" rerouteNo="0" devices="tripinfo_OD310_NV.2" vType="NV" speedFactor="1.00" vaporized=""/>
    <tripinfo id="OD176_NV.0" depart="40.00" departLane="top3D4_0" departPos="5.10" departSpeed="10.00" departDelay="0.16" arrival="111.00" arrivalLane="C4top2_0" arrivalPos="286.40" arrivalSpeed="13.86" duration="71.00" routeLength="858.56" waitingTime="0.00" waitingCount="0" stopTime="0.00" timeLoss="7.42" rerouteNo="0" devices="tripinfo_OD176_NV.0" vType="NV" speedFactor="1.00" vaporized=""/>
    <tripinfo id="OD244_NV.0" depart="9.00" departLane="top0A4_0" departPos="5.10" departSpeed="10.00" departDelay="1.64" arrival="118.00" arrivalLane="A2left2_0" arrivalPos="286.40" arrivalSpeed="13.48" duration="109.00" routeLength="1176.73" waitingTime="13.00" waitingCount="1" stopTime="0.00" timeLoss="23.22" rerouteNo="0" devices="tripinfo_OD244_NV.0" vType="NV" speedFactor="1.00" vaporized=""/>
    <tripinfo id="OD65_RV.0" depart="48.00" departLane="bottom3D0_0" departPos="5.10" departSpeed="10.00" departDelay="1.05" arrival="119.00" arrivalLane="E0bottom4_0" arrivalPos="286.40" arrivalSpeed="13.42" duration="71.00" routeLength="858.56" waitingTime="0.00" waitingCount="0" stopTime="0.00" timeLoss="7.23" rerouteNo="0" devices="tripinfo_OD65_RV.0" vType="RV" speedFactor="1.00" vaporized=""/>
    <tripinfo id="OD50_NV.0" depart="49.00" departLane="right2E2_0" departPos="5.10" departSpeed="10.00" departDelay="0.93" arrival="120.00" arrivalLane="E3right3_0" arrivalPos="286.40" arrivalSpeed="13.46" duration="71.00" routeLength="858.56" waitingTime="0.00" waitingCount="0" stopTime="0.00" timeLoss="7.57" rerouteNo="0" devices="tripinfo_OD50_NV.0" vType="NV" speedFactor="1.00" vaporized=""/>
    <tripinfo id="OD158_NV.0" depart="4.00" departLane="left2A2_0" departPos="5.10" departSpeed="10.00" departDelay="0.74" arrival="121.00" arrivalLane="A3left3_2" arrivalPos="286.40" arrivalSpeed="12.58" duration="117.00" routeLength="889.52" waitingTime="39.00" waitingCount="2" stopTime="0.00" timeLoss="51.78" rerouteNo="0" devices="tripinfo_OD158_NV.0" vType="NV" speedFactor="1.00" vaporized=""/>
    <tripinfo id="OD158_NV.1" depart="13.00" departLane="left2A2_0" departPos="5.10" departSpeed="10.00" departDelay="1.11" arrival="123.00" arrivalLane="A3left3_2" arrivalPos="286.40" arrivalSpeed="12.69" duration="110.00" routeLength="889.52" waitingTime="30.00" waitingCount="2" stopTime="0.00" timeLoss="44.62" rerouteNo="0" devices="tripinfo_OD158_NV.1" vType="NV" speedFactor="1.00" vaporized=""/>
    <tripinfo id="OD65_NV.0" depart="54.00" departLane="bottom3D0_0" departPos="5.10" departSpeed="10.00" departDelay="0.88" arrival="125.00" arrivalLane="E0bottom4_0" arrivalPos="286.40" arrivalSpeed="13.79" duration="71.00" routeLength="858.56" waitingTime="0.00" waitingCount="0" stopTime="0.00" timeLoss="6.90" rerouteNo="0" devices="tripinfo_OD65_NV.0" vType="NV" speedFactor="1.00" vaporized=""/>
    <tripinfo id="OD284_NV.1" depart="54.00" departLane="top4E4_0" departPos="5.10" departSpeed="10.00" departDelay="0.77" arrival="125.00" arrivalLane="D4top3_0" arrivalPos="286.40" arrivalSpeed="12.85" duration="71.00" routeLength="858.56" waitingTime="0.00" waitingCount="0" stopTime="0.00" timeLoss="7.57" rerouteNo="0" devices="tripinfo_OD284_NV.1" vType="NV" speedFactor="1.00" vaporized=""/>
    <tripinfo id="OD320_NV.0" depart="28.00" departLane="left4A4_0" departPos="5.10" departSpeed="10.00" departDelay="1.49" arrival="128.00" arrivalLane="A2left2_0" arrivalPos="286.40" arrivalSpeed="13.61" duration="100.00" routeLength="1158.56" waitingTime="0.00" waitingCount="0" stopTime="0.00" timeLoss="15.48" rerouteNo="0" devices="tripinfo_OD320_NV.0" vType="NV" speedFactor="1.00" vaporized=""/>
    <tripinfo id="OD50_NV.1" depart="61.00" departLane="right2E2_0" departPos="5.10" departSpeed="10.00" departDelay="1.59" arrival="132.00" arrivalLane="E3right3_0" arrivalPos="286.40" arrivalSpeed="13.78" duration="71.00" routeLength="858.56" waitingTime="0.00" waitingCount="0" stopTime="0.00" timeLoss="7.31" rerouteNo="0" devices="tripinfo_OD50_NV.1" vType="NV" speedFactor="1.00" vaporized=""/>
    <tripinfo id="OD76_NV.0" depart="65.00" departLane="right0E0_0" departPos="5.10" departSpeed="10.00" departDelay="0.41" arrival="135.00" arrivalLane="E1right1_0" arrivalPos="286.40" arrivalSpeed="13.30" duration="70.00" routeLength="858.56" waitingTime="0.00" waitingCount="0" stopTime="0.00" timeLoss="6.57" rerouteNo="0" devices="tripinfo_OD76_NV.0" vType="NV" speedFactor="1.00" vaporized=""/>
    <tripinfo id="OD45_NV.0" depart="6.00" departLane="right2E2_0" departPos="5.10" departSpeed="10.00" departDelay="0.70" arrival="136.00" arrivalLane="E4top4_1" arrivalPos="286.40" arrivalSpeed="13.44" duration="130.00" routeLength="1176.73" waitingTime="31.00" waitingCount="1" stopTime="0.00" timeLoss="44.15" rerouteNo="0" devices="tripinfo_OD45_NV.0" vType="NV" speedFactor="1.00" vaporized=""/>
    <tripinfo id="OD169_RV.0" depart="7.00" departLane="left2A2_0" departPos="5.10" departSpeed="10.00" departDelay="0.60" arrival="138.00" arrivalLane="A0bottom0_1" arrivalPos="286.40" arrivalSpeed="13.64" duration="131.00" routeLength="1176.73" waitingTime="36.00" waitingCount="1" stopTime="0.00" timeLoss="45.87" rerouteNo="0" devices="tripinfo_OD169_RV.0" vType="RV" speedFactor="1.00" vaporized=""/>
    <tripinfo id="OD142_NV.0" depart="31.00" departLane="left0A0_0" departPos="5.10" departSpeed="10.00" departDelay="0.33" arrival="139.00" arrivalLane="A1left1_2" arrivalPos="286.40" arrivalSpeed="13.42" duration="108.00" routeLength="889.52" waitingTime="31.00" waitingCount="2" stopTime="0.00" timeLoss="41.93" rerouteNo="0" devices="tripinfo_OD142_NV.0" vType="NV" speedFactor="1.00" vaporized=""/>
    <tripinfo id="OD169_NV.0" depart="17.00" departLane="left2A2_0" departPos="5.10" departSpeed="10.00" departDelay="0.59" arrival="141.00" arrivalLane="A0bottom0_1" arrivalPos="286.40" arrivalSpeed="12.75" duration="124.00" routeLength="1176.73" waitingTime="24.00" waitingCount="1" stopTime="0.00" timeLoss="37.54" rerouteNo="0" devices="tripinfo_OD169_NV.0" vType="NV" speedFactor="1.00" vaporized=""/>
    <tripinfo id="OD184_NV.0" depart="25.00" departLane="top3D4_0" departPos="5.10" departSpeed="10.00" departDelay="5.03" arrival="141.00" arrivalLane="B4top1_0" arrivalPos="286.40" arrivalSpeed="13.70" duration="116.00" routeLength="1158.56" waitingTime="17.00" waitingCount="1" stopTime="0.00" timeLoss="31.13" rerouteNo="0" devices="tripinfo_OD184_NV.0" vType="NV" speedFactor="1.00" vaporized=""/>
    <tripinfo id="OD142_NV.1" depart="45.00" departLane="left0A0_0" departPos="5.10" departSpeed="10.00" departDelay="0.59" arrival="141.00" arrivalLane="A1left1_2" arrivalPos="286.40" arrivalSpeed="13.87" duration="96.00" routeLength="889.52" waitingTime="16.00" waitingCount="2" stopTime="0.00" timeLoss="30.63" rerouteNo="0" devices="tripinfo_OD142_NV.1" vType="NV" speedFactor="1.00" vaporized=""/>
    <tripinfo id="OD169_NV.1" depart="46.00" departLane="left2A2_0" departPos="5.10" departSpeed="10.00" departDelay="0.47" arrival="142.00" arrivalLane="A0bottom0_1" arrivalPos="286.40" arrivalSpeed="13.37" duration="96.00" routeLength="1176.73" waitingTime="0.00" waitingCount="0" stopTime="0.00" timeLoss="10.52" rerouteNo="0" devices="tripinfo_OD169_NV.1" vType="NV" speedFactor="1.00" vaporized=""/>
    <tripinfo id="OD50_NV.2" depart="71.00" departLane="right2E2_0" departPos="5.10" departSpeed="10.00" departDelay="0.74" arrival="142.00" arrivalLane="E3right3_0" arrivalPos="286.40" arrivalSpeed="13.37" duration="71.00" routeLength="858.56" waitingTime="0.00" waitingCount="0" stopTime="0.00" timeLoss="7.37" rerouteNo="0" devices="tripinfo_OD50_NV.2" vType="NV" speedFactor="1.00" vaporized=""/>
    <tripinfo id="OD199_NV.0" depart="16.00" departLane="bottom1B0_0" departPos="5.10" departSpeed="10.00" departDelay="3.02" arrival="145.00" arrivalLane="E0bottom4_0" arrivalPos="286.40" arrivalSpeed="13.28" duration="129.00" routeLength="1458.56" waitingTime="4.00" waitingCount="1" stopTime="0.00" timeLoss="22.50" rerouteNo="0" devices="tripinfo_OD199_NV.0" vType="NV" speedFactor="1.00" vaporized=""/>
    <tripinfo id="OD184_RV.0" depart="29.00" departLane="top3D4_0" departPos="5.10" departSpeed="10.00" departDelay="1.79" arrival="145.00" arrivalLane="B4top1_0" arrivalPos="286.40" arrivalSpeed="12.80" duration="116.00" routeLength="1158.56" waitingTime="14.00" waitingCount="1" stopTime="0.00" timeLoss="30.37" rerouteNo="0" devices="tripinfo_OD184_RV.0" vType="RV" speedFactor="1.00" vaporized=""/>
    <tripinfo id="OD288_RV.0" depart="59.00" departLane="top1B4_0" departPos="5.10" departSpeed="10.00" departDelay="1.65" arrival="145.00" arrivalLane="A4left4_1" arrivalPos="286.40" arrivalSpeed="12.73" duration="86.00" routeLength="876.73" waitingTime="11.00" waitingCount="1" stopTime="0.00" timeLoss="21.82" rerouteNo="0" devices="tripinfo_OD288_RV.0" vType="RV" speedFactor="1.00" vaporized=""/>
    <tripinfo id="OD176_NV.1" depart="76.00" departLane="top3D4_0" departPos="5.10" departSpeed="10.00" departDelay="1.17" arrival="146.00" arrivalLane="C4top2_0" arrivalPos="286.40" arrivalSpeed="13.66" duration="70.00" routeLength="858.56" waitingTime="0.00" waitingCount="0" stopTime="0.00" timeLoss="6.59" rerouteNo="0" devices="tripinfo_OD176_NV.1" vType="NV" speedFactor="1.00" vaporized=""/>
    <tripinfo id="OD205_NV.0" depart="12.00" departLane="bottom1B0_0" departPos="5.10" departSpeed="10.00" departDelay="2.02" arrival="147.00" arrivalLane="A0left0_1" arrivalPos="286.40" arrivalSpeed="13.40" duration="135.00" routeLength="892.21" waitingTime="56.00" waitingCount="2" stopTime="0.00" timeLoss="69.99" rerouteNo="0" devices="tripinfo_OD205_NV.0" vType="NV" speedFactor="1.00" vaporized=""/>
    <tripinfo id="OD21_RV.0" depart="16.00" departLane="top2C4_0" departPos="5.10" departSpeed="10.00" departDelay="0.63" arrival="147.00" arrivalLane="A4left4_1" arrivalPos="286.40" arrivalSpeed="13.57" duration="131.00" routeLength="1176.73" waitingTime="31.00" waitingCount="1" stopTime="0.00" timeLoss="45.01" rerouteNo="0" devices="tripinfo_OD21_RV.0" vType="RV" speedFactor="1.00" vaporized=""/>
    <tripinfo id="OD7_NV.0" depart="77.00" departLane="right3E3_0" departPos="5.10" departSpeed="10.00" departDelay="0.10" arrival="147.00" arrivalLane="E4top4_1" arrivalPos="286.40" arrivalSpeed="12.76" duration="70.00" routeLength="876.73" waitingTime="0.00" waitingCount="0" stopTime="0.00" timeLoss="5.63" rerouteNo="0" devices="tripinfo_OD7_NV.0" vType="NV" speedFactor="1.00" vaporized=""/>
    <tripinfo id="OD113_NV.0" depart="35.00" departLane="right4E4_0" departPos="5.10" departSpeed="10.00" departDelay="0.56" arrival="149.00" arrivalLane="D4top3_0" arrivalPos="286.40" arrivalSpeed="13.65" duration="114.00" routeLength="876.73" waitingTime="39.00" waitingCount="1" stopTime="0.00" timeLoss="49.75" rerouteNo="0" devices="tripinfo_OD113_NV.0" vType="NV" speedFactor="1.00" vaporized=""/>
    <tripinfo id="OD21_RV.1" depart="36.00" departLane="top2C4_0" departPos="5.10" departSpeed="10.00" departDelay="0.64" arrival="149.00" arrivalLane="A4left4_1" arrivalPos="286.40" arrivalSpeed="12.85" duration="113.00" routeLength="1176.73" waitingTime="12.00" waitingCount="1" stopTime="0.00" timeLoss="26.89" rerouteNo="0" devices="tripinfo_OD21_RV.1" vType="RV" speedFactor="1.00" vaporized=""/>
    <tripinfo id="OD368_NV.0" depart="78.00" departLane="right1E1_0" departPos="5.10" departSpeed="10.00" departDelay="0.11" arrival="149.00" arrivalLane="E2right2_0" arrivalPos="286.40" arrivalSpeed="13.32" duration="71.00" routeLength="858.56" waitingTime="0.00" waitingCount="0" stopTime="0.00" timeLoss="6.96" rerouteNo="0" devices="tripinfo_OD368_NV.0" vType="NV" speedFactor="1.00" vaporized=""/>
    <tripinfo id="OD52_NV.0" depart="59.00" departLane="right2E2_0" departPos="5.10" departSpeed="10.00" departDelay="0.01" arrival="153.00" arrivalLane="E4right4_0" arrivalPos="286.40" arrivalSpeed="13.85" duration="94.00" routeLength="1158.56" waitingTime="0.00" waitingCount="0" stopTime="0.00" timeLoss="8.91" rerouteNo="0" devices="tripinfo_OD52_NV.0" vType="NV" speedFactor="1.00" vaporized=""/>
    <tripinfo id="OD310_NV.3" depart="82.00" departLane="left4A4_0" departPos="5.10" departSpeed="10.00" departDelay="0.90" arrival="153.00" arrivalLane="A3left3_0" arrivalPos="286.40" arrivalSpeed="13.41" duration="71.00" routeLength="858.56" waitingTime="0.00" waitingCount="0" stopTime="0.00" timeLoss="7.40" rerouteNo="0" devices="tripinfo_OD310_NV.3" vType="NV" speedFactor="1.00" vaporized=""/>
    <tripinfo id="OD257_RV.0" depart="12.00" departLane="left3A3_0" departPos="5.10" departSpeed="10.00" departDelay="1.82" arrival="154.00" arrivalLane="A1left1_0" arrivalPos="286.40" arrivalSpeed="12.64" duration="142.00" routeLength="1158.56" waitingTime="42.00" waitingCount="1" stopTime="0.00" timeLoss="56.60" rerouteNo="0" devices="tripinfo_OD257_RV.0" vType="RV" speedFactor="1.00" vaporized=""/>
    <tripinfo id="OD257_NV.0" depart="38.00" departLane="left3A3_0" departPos="5.10" departSpeed="10.00" departDelay="0.13" arrival="157.00" arrivalLane="A1left1_0" arrivalPos="286.40" arrivalSpeed="12.42" duration="119.00" routeLength="1158.56" waitingTime="17.00" waitingCount="1" stopTime="0.00" timeLoss="33.48" rerouteNo="0" devices="tripinfo_OD257_NV.0" vType="NV" speedFactor="1.00" vaporized=""/>
    <tripinfo id="OD252_RV.0" depart="10.00" departLane="left3A3_0" departPos="5.10" departSpeed="10.00" departDelay="0.17" arrival="159.00" arrivalLane="C4top2_1" arrivalPos="286.40" arrivalSpeed="13.21" duration="149.00" routeLength="1492.21" waitingTime="17.00" waitingCount="2" stopTime="0.00" timeLoss="40.80" rerouteNo="0" devices="tripinfo_OD252_RV.0" vType="RV" speedFactor="1.00" vaporized=""/>
    <tripinfo id="OD244_NV.1" depart="45.00" departLane="top0A4_0" departPos="5.10" departSpeed="10.00" departDelay="0.91" arrival="160.00" arrivalLane="A2left2_0" arrivalPos="286.40" arrivalSpeed="12.47" duration="115.00" routeLength="1176.73" waitingTime="16.00" waitingCount="1" stopTime="0.00" timeLoss="29.39" rerouteNo="0" devices="tripinfo_OD244_NV.1" vType="NV" speedFactor="1.00" vaporized=""/>
    <tripinfo id="OD14_NV.0" depart="90.00" departLane="right3E3_0" departPos="5.10" departSpeed="10.00" departDelay="0.85" arrival="161.00" arrivalLane="E4right4_0" arrivalPos="286.40" arrivalSpeed="13.70" duration="71.00" routeLength="858.56" waitingTime="0.00" waitingCount="0" stopTime="0.00" timeLoss="7.11" rerouteNo="0" devices="tripinfo_OD14_NV.0" vType="NV" speedFactor="1.00" vaporized=""/>
    <tripinfo id="OD131_NV.0" depart="80.00" departLane="left1A1_0" departPos="5.10" departSpeed="10.00" departDelay="0.33" arrival="163.00" arrivalLane="A0bottom0_1" arrivalPos="286.40" arrivalSpeed="13.46" duration="83.00" routeLength="876.73" waitingTime="9.00" waitingCount="1" stopTime="0.00" timeLoss="18.07" rerouteNo="0" devices="tripinfo_OD131_NV.0" vType="NV" speedFactor="1.00" vaporized=""/>
    <tripinfo id="OD218_NV.0" depart="17.00" departLane="bottom4E0_0" departPos="5.10" departSpeed="10.00" departDelay="0.06" arrival="167.00" arrivalLane="E0bottom4_0" arrivalPos="286.40" arrivalSpeed="13.11" duration="150.00" routeLength="1768.66" waitingTime="4.00" waitingCount="1" stopTime="0.00" timeLoss="20.12" rerouteNo="0" devices="tripinfo_OD218_NV.0" vType="NV" speedFactor="1.00" vaporized=""/>
    <tripinfo id="OD183_RV.0" depart="59.00" departLane="top3D4_0" departPos="5.10" departSpeed="10.00" departDelay="0.46" arrival="168.00" arrivalLane="E3right3_1" arrivalPos="286.40" arrivalSpeed="13.01" duration="109.00" routeLength="1192.21" waitingTime="4.00" waitingCount="2" stopTime="0.00" timeLoss="22.63" rerouteNo="0" devices="tripinfo_OD183_RV.0" vType="RV" speedFactor="1.00" vaporized=""/>
    <tripinfo id="OD250_NV.0" depart="30.00" departLane="left3A3_0" departPos="5.10" departSpeed="10.00" departDelay="0.83" arrival="171.00" arrivalLane="A4left4_2" arrivalPos="286.40" arrivalSpeed="13.04" duration="141.00" routeLength="889.52" waitingTime="61.00" waitingCount="2" stopTime="0.00" timeLoss="75.16" rerouteNo="0" devices="tripinfo_OD250_NV.0" vType="NV" speedFactor="1.00" vaporized=""/>
    <tripinfo id="OD368_NV.1" depart="101.00" departLane="right1E1_0" departPos="5.10" departSpeed="10.00" departDelay="0.86" arrival="172.00" arrivalLane="E2right2_0" arrivalPos="286.40" arrivalSpeed="12.90" duration="71.00" routeLength="858.56" waitingTime="0.00" waitingCount="0" stopTime="0.00" timeLoss="7.42" rerouteNo="0" devices="tripinfo_OD368_NV.1" vType="NV" speedFactor="1.00" vaporized=""/>
    <tripinfo id="OD310_NV.4" depart="101.00" departLane="left4A4_0" departPos="5.10" departSpeed="10.00" departDelay="0.28" arrival="172.00" arrivalLane="A3left3_0" arrivalPos="286.40" arrivalSpeed="13.79" duration="71.00" routeLength="858.56" waitingTime="0.00" waitingCount="0" stopTime="0.00" timeLoss="7.52" rerouteNo="0" devices="tripinfo_OD310_NV.4" vType="NV" speedFactor="1.00" vaporized=""/>
    <tripinfo id="OD76_NV.1" depart="104.00" departLane="right0E0_0" departPos="5.10" departSpeed="10.00" departDelay="0.91" arrival="174.00" arrivalLane="E1right1_0" arrivalPos="286.40" arrivalSpeed="12.67" duration="70.00" routeLength="858.56" waitingTime="0.00" waitingCount="0" stopTime="0.00" timeLoss="6.51" rerouteNo="0" devices="tripinfo_OD76_NV.1" vType="NV" speedFactor="1.00" vaporized=""/>
    <tripinfo id="OD149_NV.0" depart="7.00" departLane="left0A0_0" departPos="5.10" departSpeed="10.00" departDelay="0.02" arrival="175.00" arrivalLane="A2left2_2" arrivalPos="286.40" arrivalSpeed="13.24" duration="168.00" routeLength="1189.52" waitingTime="67.00" waitingCount="2" stopTime="0.00" timeLoss="80.76" rerouteNo="0" devices="tripinfo_OD149_NV.0" vType="NV" speedFactor="1.00" vaporized=""/>
    <tripinfo id="OD374_NV.0" depart="12.00" departLane="right1E1_0" departPos="5.10" departSpeed="10.00" departDelay="2.10" arrival="176.00" arrivalLane="E3right3_0" arrivalPos="286.40" arrivalSpeed="13.50" duration="164.00" routeLength="1158.56" waitingTime="66.00" waitingCount="1" stopTime="0.00" timeLoss="79.16" rerouteNo="0" devices="tripinfo_OD374_NV.0" vType="NV" speedFactor="1.00" vaporized=""/>
    <tripinfo id="OD339_RV.0" depart="89.00" departLane="bottom0A0_0" departPos="5.10" departSpeed="10.00" departDelay="0.59" arrival="176.00" arrivalLane="A0left0_2" arrivalPos="286.40" arrivalSpeed="13.80" duration="87.00" routeLength="592.21" waitingTime="36.00" waitingCount="1" stopTime="0.00" timeLoss="43.53" rerouteNo="0" devices="tripinfo_OD339_RV.0" vType="RV" speedFactor="1.00" vaporized=""/>
    <tripinfo id="OD192_NV.0" depart="106.00" departLane="bottom1B0_0" departPos="5.10" departSpeed="10.00" departDelay="0.31" arrival="176.00" arrivalLane="C0bottom2_0" arrivalPos="286.40" arrivalSpeed="13.36" duration="70.00" routeLength="858.56" waitingTime="0.00" waitingCount="0" stopTime="0.00" timeLoss="6.66" rerouteNo="0" devices="tripinfo_OD192_NV.0" vType="NV" speedFactor="1.00" vaporized=""/>
    <tripinfo id="OD187_NV.0" depart="5.00" departLane="top3D4_0" departPos="5.10" departSpeed="10.00" departDelay="0.79" arrival="177.00" arrivalLane="A2left2_0" arrivalPos="286.40" arrivalSpeed="13.31" duration="172.00" routeLength="2035.01" waitingTime="2.00" waitingCount="1" stopTime="0.00" timeLoss="22.52" rerouteNo="0" devices="tripinfo_OD187_NV.0" vType="NV" speedFactor="1.00" vaporized=""/>
    <tripinfo id="OD149_NV.1" depart="40.00" departLane="left0A0_0" departPos="5.10" departSpeed="10.00" departDelay="0.33" arrival="177.00" arrivalLane="A2left2_2" arrivalPos="286.40" arrivalSpeed="13.32" duration="137.00" routeLength="1189.52" waitingTime="34.00" waitingCount="2" stopTime="0.00" timeLoss="49.84" rerouteNo="0" devices="tripinfo_OD149_NV.1" vType="NV" speedFactor="1.00" vaporized=""/>
    <tripinfo id="OD194_NV.0" depart="83.00" departLane="bottom1B0_0" departPos="5.10" departSpeed="10.00" departDelay="1.99" arrival="177.00" arrivalLane="D0bottom3_0" arrivalPos="286.40" arrivalSpeed="13.08" duration="94.00" routeLength="1158.56" waitingTime="0.00" waitingCount="0" stopTime="0.00" timeLoss="8.41" rerouteNo="0" devices="tripinfo_OD194_NV.0" vType="NV" speedFactor="1.00" vaporized=""/>
    <tripinfo id="OD206_NV.0" depart="19.00" departLane="bottom1B0_0" departPos="5.10" departSpeed="10.00" departDelay="0.46" arrival="179.00" arrivalLane="A2left2_2" arrivalPos="286.40" arrivalSpeed="13.67" duration="160.00" routeLength="1471.35" waitingTime="30.00" waitingCount="2" stopTime="0.00" timeLoss="52.21" rerouteNo="0" devices="tripinfo_OD206_NV.0" vType="NV" speedFactor="1.00" vaporized=""/>
    <tripinfo id="OD135_NV.0" depart="51.00" departLane="left0A0_0" departPos="5.10" departSpeed="10.00" departDelay="0.64" arrival="179.00" arrivalLane="C0bottom2_0" arrivalPos="286.40" arrivalSpeed="12.96" duration="128.00" routeLength="1176.73" waitingTime="18.00" waitingCount="2" stopTime="0.00" timeLoss="41.78" rerouteNo="0" devices="tripinfo_OD135_NV.0" vType="NV" speedFactor="1.00" vaporized=""/>
    <tripinfo id="OD167_RV.0" depart="86.00" departLane="left2A2_0" departPos="5.10" departSpeed="10.00" departDelay="0.76" arrival="179.00" arrivalLane="A0left0_0" arrivalPos="286.40" arrivalSpeed="13.66" duration="93.00" routeLength="1158.56" waitingTime="0.00" waitingCount="0" stopTime="0.00" timeLoss="8.04" rerouteNo="0" devices="tripinfo_OD167_RV.0" vType="RV" speedFactor="1.00" vaporized=""/>
    <tripinfo id="OD161_NV.0" depart="108.00" departLane="left2A2_0" departPos="5.10" departSpeed="10.00" departDelay="0.85" arrival="179.00" arrivalLane="A1left1_0" arrivalPos="286.40" arrivalSpeed="13.85" duration="71.00" routeLength="858.56" waitingTime="0.00" waitingCount="0" stopTime="0.00" timeLoss="7.32" rerouteNo="0" devices="tripinfo_OD161_NV.0" vType="NV" speedFactor="1.00" vaporized=""/>
    <tripinfo id="OD372_NV.0" depart="57.00" departLane="right1E1_0" departPos="5.10" departSpeed="10.00" departDelay="0.58" arrival="180.00" arrivalLane="E0right0_2" arrivalPos="286.40" arrivalSpeed="12.72" duration="123.00" routeLength="889.52" waitingTime="47.00" waitingCount="1" stopTime="0.00" timeLoss="57.46" rerouteNo="0" devices="tripinfo_OD372_NV.0" vType="NV" speedFactor="1.00" vaporized=""/>
    <tripinfo id="OD161_NV.1" depart="109.00" departLane="left2A2_0" departPos="5.10" departSpeed="10.00" departDelay="1.36" arrival="182.00" arrivalLane="A1left1_0" arrivalPos="286.40" arrivalSpeed="12.63" duration="73.00" routeLength="858.56" waitingTime="0.00" waitingCount="0" stopTime="0.00" timeLoss="8.71" rerouteNo="0" devices="tripinfo_OD161_NV.1" vType="NV" speedFactor="1.00" vaporized=""/>
    <tripinfo id="OD190_NV.0" depart="14.00" departLane="bottom1B0_0" departPos="5.10" departSpeed="10.00" departDelay="1.53" arrival="184.00" arrivalLane="E1right1_0" arrivalPos="286.40" arrivalSpeed="12.82" duration="170.00" routeLength="1755.87" waitingTime="17.00" waitingCount="2" stopTime="0.00" timeLoss="41.13" rerouteNo="0" devices="tripinfo_OD190_NV.0" vType="NV" speedFactor="1.00" vaporized=""/>
    <tripinfo id="OD374_NV.1" depart="60.00" departLane="right1E1_0" departPos="5.10" departSpeed="10.00" departDelay="0.36" arrival="184.00" arrivalLane="E3right3_0" arrivalPos="286.40" arrivalSpeed="12.47" duration="124.00" routeLength="1158.56" waitingTime="24.00" waitingCount="1" stopTime="0.00" timeLoss="39.19" rerouteNo="0" devices="tripinfo_OD374_NV.1" vType="NV" speedFactor="1.00" vaporized=""/>
    <tripinfo id="OD213_NV.0" depart="89.00" departLane="bottom4E0_0" departPos="5.10" departSpeed="10.00" departDelay="0.00" arrival="185.00" arrivalLane="D0bottom3_2" arrivalPos="286.40" arrivalSpeed="13.26" duration="96.00" routeLength="889.52" waitingTime="14.00" waitingCount="2" stopTime="0.00" timeLoss="30.56" rerouteNo="0" devices="tripinfo_OD213_NV.0" vType="NV" speedFactor="1.00" vaporized=""/>
    <tripinfo id="OD213_NV.1" depart="92.00" departLane="bottom4E0_0" departPos="5.10" departSpeed="10.00" departDelay="0.32" arrival="187.00" arrivalLane="D0bottom3_2" arrivalPos="286.40" arrivalSpeed="13.67" duration="95.00" routeLength="889.52" waitingTime="14.00" waitingCount="2" stopTime="0.00" timeLoss="29.21" rerouteNo="0" devices="tripinfo_OD213_NV.1" vType="NV" speedFactor="1.00" vaporized=""/>
    <tripinfo id="OD286_NV.0" depart="117.00" departLane="top1B4_0" departPos="5.10" departSpeed="10.00" departDelay="0.84" arrival="187.00" arrivalLane="A4top0_0" arrivalPos="286.40" arrivalSpeed="13.74" duration="70.00" routeLength="858.56" waitingTime="0.00" waitingCount="0" stopTime="0.00" timeLoss="6.58" rerouteNo="0" devices="tripinfo_OD286_NV.0" vType="NV" speedFactor="1.00" vaporized=""/>