<?xml version="1.0" encoding="UTF-8"?>

<!-- generated on 2025-02-20 01:49:58 by Eclipse SUMO sumo Version 1.20.0
<configuration xmlns:xsi="http://www.w3.org/2001/XMLSchema-instance" xsi:noNamespaceSchemaLocation="http://sumo.dlr.de/xsd/sumoConfiguration.xsd">

    <input>
        <net-file value="./envs/5x5/5x5.net.xml"/>
        <route-files value="./envs/5x5/Demand_20.rou.xml"/>
    </input>

    <output>
        <tripinfo-output value="./online_train/5x5\online_train_SAC-top3SV_multi_agents/tripinfo/tripinfo_ep47.xml"/>
    </output>

    <time>
        <begin value="0"/>
    </time>

    <processing>
        <time-to-teleport value="-1"/>
        <waiting-time-memory value="1800"/>
    </processing>

    <report>
        <no-step-log value="true"/>
    </report>

    <traci_server>
        <remote-port value="61008"/>
    </traci_server>

</configuration>
-->

<tripinfos xmlns:xsi="http://www.w3.org/2001/XMLSchema-instance" xsi:noNamespaceSchemaLocation="http://sumo.dlr.de/xsd/tripinfo_file.xsd">
    <tripinfo id="OD310_NV.0" depart="4.00" departLane="left4A4_0" departPos="5.10" departSpeed="10.00" departDelay="1.48" arrival="76.00" arrivalLane="A3left3_0" arrivalPos="286.40" arrivalSpeed="13.62" duration="72.00" routeLength="858.56" waitingTime="0.00" waitingCount="0" stopTime="0.00" timeLoss="8.17" rerouteNo="0" devices="tripinfo_OD310_NV.0" vType="NV" speedFactor="1.00" vaporized=""/>
    <tripinfo id="OD310_NV.1" depart="8.00" departLane="left4A4_0" departPos="5.10" departSpeed="10.00" departDelay="3.20" arrival="79.00" arrivalLane="A3left3_0" arrivalPos="286.40" arrivalSpeed="13.40" duration="71.00" routeLength="858.56" waitingTime="0.00" waitingCount="0" stopTime="0.00" timeLoss="7.65" rerouteNo="0" devices="tripinfo_OD310_NV.1" vType="NV" speedFactor="1.00" vaporized=""/>
    <tripinfo id="OD102_NV.0" depart="37.00" departLane="right4E4_0" departPos="5.10" departSpeed="10.00" departDelay="0.87" arrival="84.00" arrivalLane="E4top4_0" arrivalPos="286.40" arrivalSpeed="13.54" duration="47.00" routeLength="576.73" waitingTime="0.00" waitingCount="0" stopTime="0.00" timeLoss="4.21" rerouteNo="0" devices="tripinfo_OD102_NV.0" vType="NV" speedFactor="1.00" vaporized=""/>
    <tripinfo id="OD158_NV.0" depart="4.00" departLane="left2A2_0" departPos="5.10" departSpeed="10.00" departDelay="0.74" arrival="86.00" arrivalLane="A3left3_2" arrivalPos="286.40" arrivalSpeed="13.73" duration="82.00" routeLength="889.52" waitingTime="6.00" waitingCount="1" stopTime="0.00" timeLoss="16.08" rerouteNo="0" devices="tripinfo_OD158_NV.0" vType="NV" speedFactor="1.00" vaporized=""/>
    <tripinfo id="OD158_NV.1" depart="13.00" departLane="left2A2_0" departPos="5.10" departSpeed="10.00" departDelay="1.11" arrival="88.00" arrivalLane="A3left3_2" arrivalPos="286.40" arrivalSpeed="12.48" duration="75.00" routeLength="889.52" waitingTime="0.00" waitingCount="0" stopTime="0.00" timeLoss="8.91" rerouteNo="0" devices="tripinfo_OD158_NV.1" vType="NV" speedFactor="1.00" vaporized=""/>
    <tripinfo id="OD205_NV.0" depart="12.00" departLane="bottom1B0_0" departPos="5.10" departSpeed="10.00" departDelay="2.02" arrival="90.00" arrivalLane="A0left0_1" arrivalPos="286.40" arrivalSpeed="12.69" duration="78.00" routeLength="892.21" waitingTime="4.00" waitingCount="1" stopTime="0.00" timeLoss="12.89" rerouteNo="0" devices="tripinfo_OD205_NV.0" vType="NV" speedFactor="1.00" vaporized=""/>
    <tripinfo id="OD129_NV.0" depart="19.00" departLane="left1A1_0" departPos="5.10" departSpeed="10.00" departDelay="0.11" arrival="90.00" arrivalLane="A0left0_0" arrivalPos="286.40" arrivalSpeed="12.48" duration="71.00" routeLength="858.56" waitingTime="0.00" waitingCount="0" stopTime="0.00" timeLoss="7.26" rerouteNo="0" devices="tripinfo_OD129_NV.0" vType="NV" speedFactor="1.00" vaporized=""/>
    <tripinfo id="OD284_NV.0" depart="22.00" departLane="top4E4_0" departPos="5.10" departSpeed="10.00" departDelay="1.14" arrival="93.00" arrivalLane="D4top3_0" arrivalPos="286.40" arrivalSpeed="13.19" duration="71.00" routeLength="858.56" waitingTime="0.00" waitingCount="0" stopTime="0.00" timeLoss="8.06" rerouteNo="0" devices="tripinfo_OD284_NV.0" vType="NV" speedFactor="1.00" vaporized=""/>
    <tripinfo id="OD353_RV.0" depart="6.00" departLane="bottom2C0_0" departPos="5.10" departSpeed="10.00" departDelay="3.40" arrival="99.00" arrivalLane="E0right0_1" arrivalPos="286.40" arrivalSpeed="13.21" duration="93.00" routeLength="1176.73" waitingTime="0.00" waitingCount="0" stopTime="0.00" timeLoss="7.28" rerouteNo="0" devices="tripinfo_OD353_RV.0" vType="RV" speedFactor="1.00" vaporized=""/>
    <tripinfo id="OD45_NV.0" depart="6.00" departLane="right2E2_0" departPos="5.10" departSpeed="10.00" departDelay="0.70" arrival="100.00" arrivalLane="E4top4_1" arrivalPos="286.40" arrivalSpeed="13.31" duration="94.00" routeLength="1176.73" waitingTime="0.00" waitingCount="0" stopTime="0.00" timeLoss="8.50" rerouteNo="0" devices="tripinfo_OD45_NV.0" vType="NV" speedFactor="1.00" vaporized=""/>
    <tripinfo id="OD244_NV.0" depart="9.00" departLane="top0A4_0" departPos="5.10" departSpeed="10.00" departDelay="1.64" arrival="102.00" arrivalLane="A2left2_0" arrivalPos="286.40" arrivalSpeed="13.37" duration="93.00" routeLength="1176.73" waitingTime="0.00" waitingCount="0" stopTime="0.00" timeLoss="6.62" rerouteNo="0" devices="tripinfo_OD244_NV.0" vType="NV" speedFactor="1.00" vaporized=""/>
    <tripinfo id="OD129_RV.0" depart="32.00" departLane="left1A1_0" departPos="5.10" departSpeed="10.00" departDelay="0.10" arrival="102.00" arrivalLane="A0left0_0" arrivalPos="286.40" arrivalSpeed="12.61" duration="70.00" routeLength="858.56" waitingTime="0.00" waitingCount="0" stopTime="0.00" timeLoss="6.51" rerouteNo="0" devices="tripinfo_OD129_RV.0" vType="RV" speedFactor="1.00" vaporized=""/>
    <tripinfo id="OD38_NV.0" depart="8.00" departLane="right2E2_0" departPos="5.10" departSpeed="10.00" departDelay="1.45" arrival="108.00" arrivalLane="E1right1_2" arrivalPos="286.40" arrivalSpeed="13.40" duration="100.00" routeLength="889.52" waitingTime="26.00" waitingCount="1" stopTime="0.00" timeLoss="33.88" rerouteNo="0" devices="tripinfo_OD38_NV.0" vType="NV" speedFactor="1.00" vaporized=""/>
    <tripinfo id="OD310_NV.2" depart="38.00" departLane="left4A4_0" departPos="5.10" departSpeed="10.00" departDelay="0.76" arrival="108.00" arrivalLane="A3left3_0" arrivalPos="286.40" arrivalSpeed="13.87" duration="70.00" routeLength="858.56" waitingTime="0.00" waitingCount="0" stopTime="0.00" timeLoss="6.70" rerouteNo="0" devices="tripinfo_OD310_NV.2" vType="NV" speedFactor="1.00" vaporized=""/>
    <tripinfo id="OD21_RV.0" depart="16.00" departLane="top2C4_0" departPos="5.10" departSpeed="10.00" departDelay="0.63" arrival="109.00" arrivalLane="A4left4_1" arrivalPos="286.40" arrivalSpeed="13.49" duration="93.00" routeLength="1176.73" waitingTime="0.00" waitingCount="0" stopTime="0.00" timeLoss="7.30" rerouteNo="0" devices="tripinfo_OD21_RV.0" vType="RV" speedFactor="1.00" vaporized=""/>
    <tripinfo id="OD176_NV.0" depart="40.00" departLane="top3D4_0" departPos="5.10" departSpeed="10.00" departDelay="0.16" arrival="111.00" arrivalLane="C4top2_0" arrivalPos="286.40" arrivalSpeed="12.61" duration="71.00" routeLength="858.56" waitingTime="0.00" waitingCount="0" stopTime="0.00" timeLoss="7.32" rerouteNo="0" devices="tripinfo_OD176_NV.0" vType="NV" speedFactor="1.00" vaporized=""/>
    <tripinfo id="OD370_NV.0" depart="29.00" departLane="right1E1_0" departPos="5.10" departSpeed="10.00" departDelay="0.78" arrival="118.00" arrivalLane="E0bottom4_1" arrivalPos="286.40" arrivalSpeed="13.19" duration="89.00" routeLength="892.21" waitingTime="15.00" waitingCount="1" stopTime="0.00" timeLoss="23.96" rerouteNo="0" devices="tripinfo_OD370_NV.0" vType="NV" speedFactor="1.00" vaporized=""/>
    <tripinfo id="OD65_RV.0" depart="48.00" departLane="bottom3D0_0" departPos="5.10" departSpeed="10.00" departDelay="1.05" arrival="119.00" arrivalLane="E0bottom4_0" arrivalPos="286.40" arrivalSpeed="12.54" duration="71.00" routeLength="858.56" waitingTime="0.00" waitingCount="0" stopTime="0.00" timeLoss="7.75" rerouteNo="0" devices="tripinfo_OD65_RV.0" vType="RV" speedFactor="1.00" vaporized=""/>
    <tripinfo id="OD50_NV.0" depart="49.00" departLane="right2E2_0" departPos="5.10" departSpeed="10.00" departDelay="0.93" arrival="119.00" arrivalLane="E3right3_0" arrivalPos="286.40" arrivalSpeed="12.89" duration="70.00" routeLength="858.56" waitingTime="0.00" waitingCount="0" stopTime="0.00" timeLoss="6.62" rerouteNo="0" devices="tripinfo_OD50_NV.0" vType="NV" speedFactor="1.00" vaporized=""/>
    <tripinfo id="OD370_NV.1" depart="31.00" departLane="right1E1_0" departPos="5.10" departSpeed="10.00" departDelay="1.52" arrival="120.00" arrivalLane="E0bottom4_1" arrivalPos="286.40" arrivalSpeed="13.25" duration="89.00" routeLength="892.21" waitingTime="13.00" waitingCount="1" stopTime="0.00" timeLoss="24.23" rerouteNo="0" devices="tripinfo_OD370_NV.1" vType="NV" speedFactor="1.00" vaporized=""/>
    <tripinfo id="OD59_NV.0" depart="6.00" departLane="bottom3D0_0" departPos="5.10" departSpeed="10.00" departDelay="0.38" arrival="122.00" arrivalLane="C0bottom2_2" arrivalPos="286.40" arrivalSpeed="13.07" duration="116.00" routeLength="889.52" waitingTime="41.00" waitingCount="1" stopTime="0.00" timeLoss="50.31" rerouteNo="0" devices="tripinfo_OD59_NV.0" vType="NV" speedFactor="1.00" vaporized=""/>
    <tripinfo id="OD284_NV.1" depart="54.00" departLane="top4E4_0" departPos="5.10" departSpeed="10.00" departDelay="0.77" arrival="124.00" arrivalLane="D4top3_0" arrivalPos="286.40" arrivalSpeed="13.31" duration="70.00" routeLength="858.56" waitingTime="0.00" waitingCount="0" stopTime="0.00" timeLoss="7.09" rerouteNo="0" devices="tripinfo_OD284_NV.1" vType="NV" speedFactor="1.00" vaporized=""/>
    <tripinfo id="OD65_NV.0" depart="54.00" departLane="bottom3D0_0" departPos="5.10" departSpeed="10.00" departDelay="0.88" arrival="125.00" arrivalLane="E0bottom4_0" arrivalPos="286.40" arrivalSpeed="13.79" duration="71.00" routeLength="858.56" waitingTime="0.00" waitingCount="0" stopTime="0.00" timeLoss="7.50" rerouteNo="0" devices="tripinfo_OD65_NV.0" vType="NV" speedFactor="1.00" vaporized=""/>
    <tripinfo id="OD169_RV.0" depart="7.00" departLane="left2A2_0" departPos="5.10" departSpeed="10.00" departDelay="0.60" arrival="129.00" arrivalLane="A0bottom0_1" arrivalPos="286.40" arrivalSpeed="12.61" duration="122.00" routeLength="1176.73" waitingTime="26.00" waitingCount="1" stopTime="0.00" timeLoss="35.95" rerouteNo="0" devices="tripinfo_OD169_RV.0" vType="RV" speedFactor="1.00" vaporized=""/>
    <tripinfo id="OD320_NV.0" depart="28.00" departLane="left4A4_0" departPos="5.10" departSpeed="10.00" departDelay="1.49" arrival="132.00" arrivalLane="A2left2_0" arrivalPos="286.40" arrivalSpeed="13.43" duration="104.00" routeLength="1158.56" waitingTime="3.00" waitingCount="1" stopTime="0.00" timeLoss="18.32" rerouteNo="0" devices="tripinfo_OD320_NV.0" vType="NV" speedFactor="1.00" vaporized=""/>
    <tripinfo id="OD50_NV.1" depart="61.00" departLane="right2E2_0" departPos="5.10" departSpeed="10.00" departDelay="1.59" arrival="132.00" arrivalLane="E3right3_0" arrivalPos="286.40" arrivalSpeed="12.64" duration="71.00" routeLength="858.56" waitingTime="0.00" waitingCount="0" stopTime="0.00" timeLoss="7.27" rerouteNo="0" devices="tripinfo_OD50_NV.1" vType="NV" speedFactor="1.00" vaporized=""/>
    <tripinfo id="OD184_NV.0" depart="25.00" departLane="top3D4_0" departPos="5.10" departSpeed="10.00" departDelay="5.03" arrival="135.00" arrivalLane="B4top1_0" arrivalPos="286.40" arrivalSpeed="13.67" duration="110.00" routeLength="1158.56" waitingTime="10.00" waitingCount="1" stopTime="0.00" timeLoss="24.33" rerouteNo="0" devices="tripinfo_OD184_NV.0" vType="NV" speedFactor="1.00" vaporized=""/>
    <tripinfo id="OD76_NV.0" depart="65.00" departLane="right0E0_0" departPos="5.10" departSpeed="10.00" departDelay="0.41" arrival="136.00" arrivalLane="E1right1_0" arrivalPos="286.40" arrivalSpeed="12.48" duration="71.00" routeLength="858.56" waitingTime="0.00" waitingCount="0" stopTime="0.00" timeLoss="7.45" rerouteNo="0" devices="tripinfo_OD76_NV.0" vType="NV" speedFactor="1.00" vaporized=""/>
    <tripinfo id="OD184_RV.0" depart="29.00" departLane="top3D4_0" departPos="5.10" departSpeed="10.00" departDelay="1.79" arrival="137.00" arrivalLane="B4top1_0" arrivalPos="286.40" arrivalSpeed="12.95" duration="108.00" routeLength="1158.56" waitingTime="8.00" waitingCount="1" stopTime="0.00" timeLoss="22.55" rerouteNo="0" devices="tripinfo_OD184_RV.0" vType="RV" speedFactor="1.00" vaporized=""/>
    <tripinfo id="OD374_NV.0" depart="12.00" departLane="right1E1_0" departPos="5.10" departSpeed="10.00" departDelay="2.10" arrival="138.00" arrivalLane="E3right3_0" arrivalPos="286.40" arrivalSpeed="12.92" duration="126.00" routeLength="1158.56" waitingTime="26.00" waitingCount="1" stopTime="0.00" timeLoss="41.24" rerouteNo="0" devices="tripinfo_OD374_NV.0" vType="NV" speedFactor="1.00" vaporized=""/>
    <tripinfo id="OD288_RV.0" depart="59.00" departLane="top1B4_0" departPos="5.10" departSpeed="10.00" departDelay="1.65" arrival="139.00" arrivalLane="A4left4_1" arrivalPos="286.40" arrivalSpeed="13.50" duration="80.00" routeLength="876.73" waitingTime="6.00" waitingCount="1" stopTime="0.00" timeLoss="15.52" rerouteNo="0" devices="tripinfo_OD288_RV.0" vType="RV" speedFactor="1.00" vaporized=""/>
    <tripinfo id="OD21_RV.1" depart="36.00" departLane="top2C4_0" departPos="5.10" departSpeed="10.00" departDelay="0.64" arrival="142.00" arrivalLane="A4left4_1" arrivalPos="286.40" arrivalSpeed="13.50" duration="106.00" routeLength="1176.73" waitingTime="9.00" waitingCount="1" stopTime="0.00" timeLoss="20.11" rerouteNo="0" devices="tripinfo_OD21_RV.1" vType="RV" speedFactor="1.00" vaporized=""/>
    <tripinfo id="OD50_NV.2" depart="71.00" departLane="right2E2_0" departPos="5.10" departSpeed="10.00" departDelay="0.74" arrival="142.00" arrivalLane="E3right3_0" arrivalPos="286.40" arrivalSpeed="13.12" duration="71.00" routeLength="858.56" waitingTime="0.00" waitingCount="0" stopTime="0.00" timeLoss="7.11" rerouteNo="0" devices="tripinfo_OD50_NV.2" vType="NV" speedFactor="1.00" vaporized=""/>
    <tripinfo id="OD174_NV.0" depart="19.00" departLane="top3D4_0" departPos="5.10" departSpeed="10.00" departDelay="0.66" arrival="143.00" arrivalLane="A4left4_1" arrivalPos="286.40" arrivalSpeed="13.14" duration="124.00" routeLength="1476.73" waitingTime="5.00" waitingCount="1" stopTime="0.00" timeLoss="17.26" rerouteNo="0" devices="tripinfo_OD174_NV.0" vType="NV" speedFactor="1.00" vaporized=""/>
    <tripinfo id="OD257_RV.0" depart="12.00" departLane="left3A3_0" departPos="5.10" departSpeed="10.00" departDelay="1.82" arrival="144.00" arrivalLane="A1left1_0" arrivalPos="286.40" arrivalSpeed="12.98" duration="132.00" routeLength="1158.56" waitingTime="34.00" waitingCount="1" stopTime="0.00" timeLoss="46.75" rerouteNo="0" devices="tripinfo_OD257_RV.0" vType="RV" speedFactor="1.00" vaporized=""/>
    <tripinfo id="OD174_NV.1" depart="23.00" departLane="top3D4_0" departPos="5.10" departSpeed="10.00" departDelay="3.67" arrival="145.00" arrivalLane="A4left4_1" arrivalPos="286.40" arrivalSpeed="12.89" duration="122.00" routeLength="1476.73" waitingTime="1.00" waitingCount="1" stopTime="0.00" timeLoss="15.10" rerouteNo="0" devices="tripinfo_OD174_NV.1" vType="NV" speedFactor="1.00" vaporized=""/>
    <tripinfo id="OD176_NV.1" depart="76.00" departLane="top3D4_0" departPos="5.10" departSpeed="10.00" departDelay="1.17" arrival="146.00" arrivalLane="C4top2_0" arrivalPos="286.40" arrivalSpeed="12.75" duration="70.00" routeLength="858.56" waitingTime="0.00" waitingCount="0" stopTime="0.00" timeLoss="6.57" rerouteNo="0" devices="tripinfo_OD176_NV.1" vType="NV" speedFactor="1.00" vaporized=""/>
    <tripinfo id="OD257_NV.0" depart="38.00" departLane="left3A3_0" departPos="5.10" departSpeed="10.00" departDelay="0.13" arrival="147.00" arrivalLane="A1left1_0" arrivalPos="286.40" arrivalSpeed="12.71" duration="109.00" routeLength="1158.56" waitingTime="11.00" waitingCount="1" stopTime="0.00" timeLoss="23.55" rerouteNo="0" devices="tripinfo_OD257_NV.0" vType="NV" speedFactor="1.00" vaporized=""/>
    <tripinfo id="OD7_NV.0" depart="77.00" departLane="right3E3_0" departPos="5.10" departSpeed="10.00" departDelay="0.10" arrival="147.00" arrivalLane="E4top4_1" arrivalPos="286.40" arrivalSpeed="12.39" duration="70.00" routeLength="876.73" waitingTime="0.00" waitingCount="0" stopTime="0.00" timeLoss="4.97" rerouteNo="0" devices="tripinfo_OD7_NV.0" vType="NV" speedFactor="1.00" vaporized=""/>
    <tripinfo id="OD291_NV.0" depart="3.00" departLane="top1B4_0" departPos="5.10" departSpeed="10.00" departDelay="0.51" arrival="148.00" arrivalLane="A3left3_1" arrivalPos="286.40" arrivalSpeed="13.53" duration="145.00" routeLength="1176.73" waitingTime="43.00" waitingCount="2" stopTime="0.00" timeLoss="59.36" rerouteNo="0" devices="tripinfo_OD291_NV.0" vType="NV" speedFactor="1.00" vaporized=""/>
    <tripinfo id="OD169_NV.0" depart="17.00" departLane="left2A2_0" departPos="5.10" departSpeed="10.00" departDelay="0.59" arrival="148.00" arrivalLane="A0bottom0_1" arrivalPos="286.40" arrivalSpeed="12.51" duration="131.00" routeLength="1176.73" waitingTime="25.00" waitingCount="2" stopTime="0.00" timeLoss="44.72" rerouteNo="0" devices="tripinfo_OD169_NV.0" vType="NV" speedFactor="1.00" vaporized=""/>
    <tripinfo id="OD368_NV.0" depart="78.00" departLane="right1E1_0" departPos="5.10" departSpeed="10.00" departDelay="0.11" arrival="149.00" arrivalLane="E2right2_0" arrivalPos="286.40" arrivalSpeed="13.28" duration="71.00" routeLength="858.56" waitingTime="0.00" waitingCount="0" stopTime="0.00" timeLoss="7.01" rerouteNo="0" devices="tripinfo_OD368_NV.0" vType="NV" speedFactor="1.00" vaporized=""/>
    <tripinfo id="OD264_NV.0" depart="6.00" departLane="left3A3_0" departPos="5.10" departSpeed="10.00" departDelay="0.30" arrival="150.00" arrivalLane="A0bottom0_1" arrivalPos="286.40" arrivalSpeed="13.86" duration="144.00" routeLength="1476.73" waitingTime="18.00" waitingCount="2" stopTime="0.00" timeLoss="36.21" rerouteNo="0" devices="tripinfo_OD264_NV.0" vType="NV" speedFactor="1.00" vaporized=""/>
    <tripinfo id="OD169_NV.1" depart="46.00" departLane="left2A2_0" departPos="5.10" departSpeed="10.00" departDelay="0.47" arrival="152.00" arrivalLane="A0bottom0_1" arrivalPos="286.40" arrivalSpeed="13.87" duration="106.00" routeLength="1176.73" waitingTime="8.00" waitingCount="1" stopTime="0.00" timeLoss="19.95" rerouteNo="0" devices="tripinfo_OD169_NV.1" vType="NV" speedFactor="1.00" vaporized=""/>
    <tripinfo id="OD179_NV.0" depart="57.00" departLane="top3D4_0" departPos="5.10" departSpeed="10.00" departDelay="0.69" arrival="152.00" arrivalLane="E4top4_2" arrivalPos="286.40" arrivalSpeed="12.74" duration="95.00" routeLength="889.52" waitingTime="21.00" waitingCount="1" stopTime="0.00" timeLoss="29.37" rerouteNo="0" devices="tripinfo_OD179_NV.0" vType="NV" speedFactor="1.00" vaporized=""/>
    <tripinfo id="OD310_NV.3" depart="82.00" departLane="left4A4_0" departPos="5.10" departSpeed="10.00" departDelay="0.90" arrival="153.00" arrivalLane="A3left3_0" arrivalPos="286.40" arrivalSpeed="13.60" duration="71.00" routeLength="858.56" waitingTime="0.00" waitingCount="0" stopTime="0.00" timeLoss="7.91" rerouteNo="0" devices="tripinfo_OD310_NV.3" vType="NV" speedFactor="1.00" vaporized=""/>
    <tripinfo id="OD309_NV.0" depart="31.00" departLane="left4A4_0" departPos="5.10" departSpeed="10.00" departDelay="0.45" arrival="154.00" arrivalLane="C4top2_2" arrivalPos="286.40" arrivalSpeed="13.68" duration="123.00" routeLength="1192.21" waitingTime="18.00" waitingCount="2" stopTime="0.00" timeLoss="36.38" rerouteNo="0" devices="tripinfo_OD309_NV.0" vType="NV" speedFactor="1.00" vaporized=""/>
    <tripinfo id="OD131_NV.0" depart="80.00" departLane="left1A1_0" departPos="5.10" departSpeed="10.00" departDelay="0.33" arrival="154.00" arrivalLane="A0bottom0_1" arrivalPos="286.40" arrivalSpeed="13.58" duration="74.00" routeLength="876.73" waitingTime="0.00" waitingCount="0" stopTime="0.00" timeLoss="9.04" rerouteNo="0" devices="tripinfo_OD131_NV.0" vType="NV" speedFactor="1.00" vaporized=""/>
    <tripinfo id="OD52_NV.0" depart="59.00" departLane="right2E2_0" departPos="5.10" departSpeed="10.00" departDelay="0.01" arrival="158.00" arrivalLane="E4right4_0" arrivalPos="286.40" arrivalSpeed="13.26" duration="99.00" routeLength="1158.56" waitingTime="2.00" waitingCount="1" stopTime="0.00" timeLoss="13.93" rerouteNo="0" devices="tripinfo_OD52_NV.0" vType="NV" speedFactor="1.00" vaporized=""/>
    <tripinfo id="OD374_NV.1" depart="60.00" departLane="right1E1_0" departPos="5.10" departSpeed="10.00" departDelay="0.36" arrival="161.00" arrivalLane="E3right3_0" arrivalPos="286.40" arrivalSpeed="13.22" duration="101.00" routeLength="1158.56" waitingTime="3.00" waitingCount="1" stopTime="0.00" timeLoss="16.10" rerouteNo="0" devices="tripinfo_OD374_NV.1" vType="NV" speedFactor="1.00" vaporized=""/>
    <tripinfo id="OD14_NV.0" depart="90.00" departLane="right3E3_0" departPos="5.10" departSpeed="10.00" departDelay="0.85" arrival="161.00" arrivalLane="E4right4_0" arrivalPos="286.40" arrivalSpeed="13.29" duration="71.00" routeLength="858.56" waitingTime="0.00" waitingCount="0" stopTime="0.00" timeLoss="7.43" rerouteNo="0" devices="tripinfo_OD14_NV.0" vType="NV" speedFactor="1.00" vaporized=""/>
    <tripinfo id="OD246_NV.0" depart="2.00" departLane="top0A4_0" departPos="5.10" departSpeed="10.00" departDelay="0.05" arrival="163.00" arrivalLane="D4top3_2" arrivalPos="286.40" arrivalSpeed="13.09" duration="161.00" routeLength="1489.52" waitingTime="34.00" waitingCount="3" stopTime="0.00" timeLoss="51.90" rerouteNo="0" devices="tripinfo_OD246_NV.0" vType="NV" speedFactor="1.00" vaporized=""/>
    <tripinfo id="OD333_NV.0" depart="74.00" departLane="bottom0A0_0" departPos="5.10" departSpeed="10.00" departDelay="1.16" arrival="163.00" arrivalLane="A1left1_2" arrivalPos="286.40" arrivalSpeed="12.87" duration="89.00" routeLength="892.21" waitingTime="9.00" waitingCount="1" stopTime="0.00" timeLoss="23.88" rerouteNo="0" devices="tripinfo_OD333_NV.0" vType="NV" speedFactor="1.00" vaporized=""/>
    <tripinfo id="OD178_NV.0" depart="10.00" departLane="top3D4_0" departPos="5.10" departSpeed="10.00" departDelay="0.60" arrival="165.00" arrivalLane="E2right2_2" arrivalPos="286.40" arrivalSpeed="12.73" duration="155.00" routeLength="1471.35" waitingTime="23.00" waitingCount="3" stopTime="0.00" timeLoss="46.90" rerouteNo="0" devices="tripinfo_OD178_NV.0" vType="NV" speedFactor="1.00" vaporized=""/>
    <tripinfo id="OD369_NV.0" depart="5.00" departLane="right1E1_0" departPos="5.10" departSpeed="10.00" departDelay="2.04" arrival="166.00" arrivalLane="E4top4_1" arrivalPos="286.40" arrivalSpeed="13.19" duration="161.00" routeLength="1476.73" waitingTime="33.00" waitingCount="2" stopTime="0.00" timeLoss="53.56" rerouteNo="0" devices="tripinfo_OD369_NV.0" vType="NV" speedFactor="1.00" vaporized=""/>
    <tripinfo id="OD199_NV.0" depart="16.00" departLane="bottom1B0_0" departPos="5.10" departSpeed="10.00" departDelay="3.02" arrival="166.00" arrivalLane="E0bottom4_0" arrivalPos="286.40" arrivalSpeed="13.58" duration="150.00" routeLength="1458.56" waitingTime="17.00" waitingCount="2" stopTime="0.00" timeLoss="42.79" rerouteNo="0" devices="tripinfo_OD199_NV.0" vType="NV" speedFactor="1.00" vaporized=""/>
    <tripinfo id="OD178_NV.1" depart="21.00" departLane="top3D4_0" departPos="5.10" departSpeed="10.00" departDelay="2.39" arrival="167.00" arrivalLane="E2right2_2" arrivalPos="286.40" arrivalSpeed="12.51" duration="146.00" routeLength="1471.35" waitingTime="14.00" waitingCount="2" stopTime="0.00" timeLoss="37.74" rerouteNo="0" devices="tripinfo_OD178_NV.1" vType="NV" speedFactor="1.00" vaporized=""/>
    <tripinfo id="OD369_NV.1" depart="26.00" departLane="right1E1_0" departPos="5.10" departSpeed="10.00" departDelay="0.50" arrival="168.00" arrivalLane="E4top4_1" arrivalPos="286.40" arrivalSpeed="12.53" duration="142.00" routeLength="1476.73" waitingTime="15.00" waitingCount="1" stopTime="0.00" timeLoss="34.37" rerouteNo="0" devices="tripinfo_OD369_NV.1" vType="NV" speedFactor="1.00" vaporized=""/>
    <tripinfo id="OD178_NV.2" depart="47.00" departLane="top3D4_0" departPos="5.10" departSpeed="10.00" departDelay="0.58" arrival="169.00" arrivalLane="E2right2_2" arrivalPos="286.40" arrivalSpeed="13.55" duration="122.00" routeLength="1471.35" waitingTime="0.00" waitingCount="0" stopTime="0.00" timeLoss="12.95" rerouteNo="0" devices="tripinfo_OD178_NV.2" vType="NV" speedFactor="1.00" vaporized=""/>
    <tripinfo id="OD369_NV.2" depart="44.00" departLane="right1E1_0" departPos="5.10" departSpeed="10.00" departDelay="0.23" arrival="170.00" arrivalLane="E4top4_1" arrivalPos="286.40" arrivalSpeed="13.09" duration="126.00" routeLength="1476.73" waitingTime="0.00" waitingCount="0" stopTime="0.00" timeLoss="18.30" rerouteNo="0" devices="tripinfo_OD369_NV.2" vType="NV" speedFactor="1.00" vaporized=""/>
    <tripinfo id="OD368_NV.1" depart="101.00" departLane="right1E1_0" departPos="5.10" departSpeed="10.00" departDelay="0.86" arrival="171.00" arrivalLane="E2right2_0" arrivalPos="286.40" arrivalSpeed="13.25" duration="70.00" routeLength="858.56" waitingTime="0.00" waitingCount="0" stopTime="0.00" timeLoss="6.80" rerouteNo="0" devices="tripinfo_OD368_NV.1" vType="NV" speedFactor="1.00" vaporized=""/>
    <tripinfo id="OD310_NV.4" depart="101.00" departLane="left4A4_0" departPos="5.10" departSpeed="10.00" departDelay="0.28" arrival="171.00" arrivalLane="A3left3_0" arrivalPos="286.40" arrivalSpeed="13.47" duration="70.00" routeLength="858.56" waitingTime="0.00" waitingCount="0" stopTime="0.00" timeLoss="6.57" rerouteNo="0" devices="tripinfo_OD310_NV.4" vType="NV" speedFactor="1.00" vaporized=""/>
    <tripinfo id="OD201_NV.0" depart="21.00" departLane="bottom1B0_0" departPos="5.10" departSpeed="10.00" departDelay="0.44" arrival="174.00" arrivalLane="B0bottom1_1" arrivalPos="286.40" arrivalSpeed="13.36" duration="153.00" routeLength="1768.66" waitingTime="2.00" waitingCount="1" stopTime="0.00" timeLoss="23.24" rerouteNo="0" devices="tripinfo_OD201_NV.0" vType="NV" speedFactor="1.00" vaporized=""/>
    <tripinfo id="OD158_RV.0" depart="81.00" departLane="left2A2_0" departPos="5.10" departSpeed="10.00" departDelay="0.78" arrival="174.00" arrivalLane="A3left3_2" arrivalPos="286.40" arrivalSpeed="13.43" duration="93.00" routeLength="889.52" waitingTime="11.00" waitingCount="2" stopTime="0.00" timeLoss="27.80" rerouteNo="0" devices="tripinfo_OD158_RV.0" vType="RV" speedFactor="1.00" vaporized=""/>
    <tripinfo id="OD76_NV.1" depart="104.00" departLane="right0E0_0" departPos="5.10" departSpeed="10.00" departDelay="0.91" arrival="175.00" arrivalLane="E1right1_0" arrivalPos="286.40" arrivalSpeed="12.66" duration="71.00" routeLength="858.56" waitingTime="0.00" waitingCount="0" stopTime="0.00" timeLoss="7.84" rerouteNo="0" devices="tripinfo_OD76_NV.1" vType="NV" speedFactor="1.00" vaporized=""/>
    <tripinfo id="OD149_NV.0" depart="7.00" departLane="left0A0_0" departPos="5.10" departSpeed="10.00" departDelay="0.02" arrival="176.00" arrivalLane="A2left2_2" arrivalPos="286.40" arrivalSpeed="13.24" duration="169.00" routeLength="1189.52" waitingTime="67.00" waitingCount="2" stopTime="0.00" timeLoss="82.11" rerouteNo="0" devices="tripinfo_OD149_NV.0" vType="NV" speedFactor="1.00" vaporized=""/>
    <tripinfo id="OD158_NV.2" depart="88.00" departLane="left2A2_0" departPos="5.10" departSpeed="10.00" departDelay="1.34" arrival="176.00" arrivalLane="A3left3_2" arrivalPos="286.40" arrivalSpeed="12.83" duration="88.00" routeLength="889.52" waitingTime="7.00" waitingCount="2" stopTime="0.00" timeLoss="22.76" rerouteNo="0" devices="tripinfo_OD158_NV.2" vType="NV" speedFactor="1.00" vaporized=""/>
    <tripinfo id="OD192_NV.0" depart="106.00" departLane="bottom1B0_0" departPos="5.10" departSpeed="10.00" departDelay="0.31" arrival="177.00" arrivalLane="C0bottom2_0" arrivalPos="286.40" arrivalSpeed="13.17" duration="71.00" routeLength="858.56" waitingTime="0.00" waitingCount="0" stopTime="0.00" timeLoss="7.04" rerouteNo="0" devices="tripinfo_OD192_NV.0" vType="NV" speedFactor="1.00" vaporized=""/>
    <tripinfo id="OD206_NV.0" depart="19.00" departLane="bottom1B0_0" departPos="5.10" departSpeed="10.00" departDelay="0.46" arrival="178.00" arrivalLane="A2left2_2" arrivalPos="286.40" arrivalSpeed="13.53" duration="159.00" routeLength="1471.35" waitingTime="33.00" waitingCount="1" stopTime="0.00" timeLoss="51.28" rerouteNo="0" devices="tripinfo_OD206_NV.0" vType="NV" speedFactor="1.00" vaporized=""/>
    <tripinfo id="OD135_NV.0" depart="51.00" departLane="left0A0_0" departPos="5.10" departSpeed="10.00" departDelay="0.64" arrival="179.00" arrivalLane="C0bottom2_0" arrivalPos="286.40" arrivalSpeed="12.59" duration="128.00" routeLength="1176.73" waitingTime="22.00" waitingCount="2" stopTime="0.00" timeLoss="42.67" rerouteNo="0" devices="tripinfo_OD135_NV.0" vType="NV" speedFactor="1.00" vaporized=""/>
    <tripinfo id="OD161_NV.0" depart="108.00" departLane="left2A2_0" departPos="5.10" departSpeed="10.00" departDelay="0.85" arrival="179.00" arrivalLane="A1left1_0" arrivalPos="286.40" arrivalSpeed="13.33" duration="71.00" routeLength="858.56" waitingTime="0.00" waitingCount="0" stopTime="0.00" timeLoss="6.87" rerouteNo="0" devices="tripinfo_OD161_NV.0" vType="NV" speedFactor="1.00" vaporized=""/>