<?xml version="1.0" encoding="UTF-8"?>

<!-- generated on 2025-02-17 03:59:26 by Eclipse SUMO sumo Version 1.20.0
<configuration xmlns:xsi="http://www.w3.org/2001/XMLSchema-instance" xsi:noNamespaceSchemaLocation="http://sumo.dlr.de/xsd/sumoConfiguration.xsd">

    <input>
        <net-file value="./envs/5x5/5x5.net.xml"/>
        <route-files value="./envs/5x5/Demand_20.rou.xml"/>
    </input>

    <output>
        <tripinfo-output value="./online_train/5x5\online_train_SACTF-mask-onlySV_multi_agents/tripinfo/tripinfo_ep195.xml"/>
    </output>

    <time>
        <begin value="0"/>
    </time>

    <processing>
        <time-to-teleport value="-1"/>
        <waiting-time-memory value="1800"/>
    </processing>

    <report>
        <no-step-log value="true"/>
    </report>

    <traci_server>
        <remote-port value="54270"/>
    </traci_server>

</configuration>
-->

<tripinfos xmlns:xsi="http://www.w3.org/2001/XMLSchema-instance" xsi:noNamespaceSchemaLocation="http://sumo.dlr.de/xsd/tripinfo_file.xsd">
    <tripinfo id="OD310_NV.0" depart="4.00" departLane="left4A4_0" departPos="5.10" departSpeed="10.00" departDelay="1.48" arrival="76.00" arrivalLane="A3left3_0" arrivalPos="286.40" arrivalSpeed="13.62" duration="72.00" routeLength="858.56" waitingTime="0.00" waitingCount="0" stopTime="0.00" timeLoss="7.99" rerouteNo="0" devices="tripinfo_OD310_NV.0" vType="NV" speedFactor="1.00" vaporized=""/>
    <tripinfo id="OD310_NV.1" depart="8.00" departLane="left4A4_0" departPos="5.10" departSpeed="10.00" departDelay="3.20" arrival="79.00" arrivalLane="A3left3_0" arrivalPos="286.40" arrivalSpeed="13.40" duration="71.00" routeLength="858.56" waitingTime="0.00" waitingCount="0" stopTime="0.00" timeLoss="7.65" rerouteNo="0" devices="tripinfo_OD310_NV.1" vType="NV" speedFactor="1.00" vaporized=""/>
    <tripinfo id="OD102_NV.0" depart="37.00" departLane="right4E4_0" departPos="5.10" departSpeed="10.00" departDelay="0.87" arrival="84.00" arrivalLane="E4top4_0" arrivalPos="286.40" arrivalSpeed="13.88" duration="47.00" routeLength="576.73" waitingTime="0.00" waitingCount="0" stopTime="0.00" timeLoss="4.47" rerouteNo="0" devices="tripinfo_OD102_NV.0" vType="NV" speedFactor="1.00" vaporized=""/>
    <tripinfo id="OD129_NV.0" depart="19.00" departLane="left1A1_0" departPos="5.10" departSpeed="10.00" departDelay="0.11" arrival="91.00" arrivalLane="A0left0_0" arrivalPos="286.40" arrivalSpeed="13.49" duration="72.00" routeLength="858.56" waitingTime="0.00" waitingCount="0" stopTime="0.00" timeLoss="7.67" rerouteNo="0" devices="tripinfo_OD129_NV.0" vType="NV" speedFactor="1.00" vaporized=""/>
    <tripinfo id="OD284_NV.0" depart="22.00" departLane="top4E4_0" departPos="5.10" departSpeed="10.00" departDelay="1.14" arrival="93.00" arrivalLane="D4top3_0" arrivalPos="286.40" arrivalSpeed="13.56" duration="71.00" routeLength="858.56" waitingTime="0.00" waitingCount="0" stopTime="0.00" timeLoss="7.32" rerouteNo="0" devices="tripinfo_OD284_NV.0" vType="NV" speedFactor="1.00" vaporized=""/>
    <tripinfo id="OD45_NV.0" depart="6.00" departLane="right2E2_0" departPos="5.10" departSpeed="10.00" departDelay="0.70" arrival="99.00" arrivalLane="E4top4_1" arrivalPos="286.40" arrivalSpeed="12.56" duration="93.00" routeLength="1176.73" waitingTime="0.00" waitingCount="0" stopTime="0.00" timeLoss="7.02" rerouteNo="0" devices="tripinfo_OD45_NV.0" vType="NV" speedFactor="1.00" vaporized=""/>
    <tripinfo id="OD169_RV.0" depart="7.00" departLane="left2A2_0" departPos="5.10" departSpeed="10.00" departDelay="0.60" arrival="99.00" arrivalLane="A0bottom0_1" arrivalPos="286.40" arrivalSpeed="12.41" duration="92.00" routeLength="1176.73" waitingTime="0.00" waitingCount="0" stopTime="0.00" timeLoss="6.54" rerouteNo="0" devices="tripinfo_OD169_RV.0" vType="RV" speedFactor="1.00" vaporized=""/>
    <tripinfo id="OD129_RV.0" depart="32.00" departLane="left1A1_0" departPos="5.10" departSpeed="10.00" departDelay="0.10" arrival="102.00" arrivalLane="A0left0_0" arrivalPos="286.40" arrivalSpeed="13.64" duration="70.00" routeLength="858.56" waitingTime="0.00" waitingCount="0" stopTime="0.00" timeLoss="6.38" rerouteNo="0" devices="tripinfo_OD129_RV.0" vType="RV" speedFactor="1.00" vaporized=""/>
    <tripinfo id="OD353_RV.0" depart="6.00" departLane="bottom2C0_0" departPos="5.10" departSpeed="10.00" departDelay="3.40" arrival="106.00" arrivalLane="E0right0_1" arrivalPos="286.40" arrivalSpeed="13.24" duration="100.00" routeLength="1176.73" waitingTime="2.00" waitingCount="1" stopTime="0.00" timeLoss="13.70" rerouteNo="0" devices="tripinfo_OD353_RV.0" vType="RV" speedFactor="1.00" vaporized=""/>
    <tripinfo id="OD310_NV.2" depart="38.00" departLane="left4A4_0" departPos="5.10" departSpeed="10.00" departDelay="0.76" arrival="109.00" arrivalLane="A3left3_0" arrivalPos="286.40" arrivalSpeed="13.26" duration="71.00" routeLength="858.56" waitingTime="0.00" waitingCount="0" stopTime="0.00" timeLoss="7.60" rerouteNo="0" devices="tripinfo_OD310_NV.2" vType="NV" speedFactor="1.00" vaporized=""/>
    <tripinfo id="OD176_NV.0" depart="40.00" departLane="top3D4_0" departPos="5.10" departSpeed="10.00" departDelay="0.16" arrival="110.00" arrivalLane="C4top2_0" arrivalPos="286.40" arrivalSpeed="13.41" duration="70.00" routeLength="858.56" waitingTime="0.00" waitingCount="0" stopTime="0.00" timeLoss="7.01" rerouteNo="0" devices="tripinfo_OD176_NV.0" vType="NV" speedFactor="1.00" vaporized=""/>
    <tripinfo id="OD257_RV.0" depart="12.00" departLane="left3A3_0" departPos="5.10" departSpeed="10.00" departDelay="1.82" arrival="119.00" arrivalLane="A1left1_0" arrivalPos="286.40" arrivalSpeed="12.65" duration="107.00" routeLength="1158.56" waitingTime="9.00" waitingCount="1" stopTime="0.00" timeLoss="21.66" rerouteNo="0" devices="tripinfo_OD257_RV.0" vType="RV" speedFactor="1.00" vaporized=""/>
    <tripinfo id="OD65_RV.0" depart="48.00" departLane="bottom3D0_0" departPos="5.10" departSpeed="10.00" departDelay="1.05" arrival="119.00" arrivalLane="E0bottom4_0" arrivalPos="286.40" arrivalSpeed="13.73" duration="71.00" routeLength="858.56" waitingTime="0.00" waitingCount="0" stopTime="0.00" timeLoss="6.84" rerouteNo="0" devices="tripinfo_OD65_RV.0" vType="RV" speedFactor="1.00" vaporized=""/>
    <tripinfo id="OD50_NV.0" depart="49.00" departLane="right2E2_0" departPos="5.10" departSpeed="10.00" departDelay="0.93" arrival="120.00" arrivalLane="E3right3_0" arrivalPos="286.40" arrivalSpeed="13.56" duration="71.00" routeLength="858.56" waitingTime="0.00" waitingCount="0" stopTime="0.00" timeLoss="7.34" rerouteNo="0" devices="tripinfo_OD50_NV.0" vType="NV" speedFactor="1.00" vaporized=""/>
    <tripinfo id="OD354_NV.0" depart="10.00" departLane="bottom2C0_0" departPos="5.10" departSpeed="10.00" departDelay="0.22" arrival="121.00" arrivalLane="B0bottom1_2" arrivalPos="286.40" arrivalSpeed="13.44" duration="111.00" routeLength="889.52" waitingTime="32.00" waitingCount="2" stopTime="0.00" timeLoss="45.35" rerouteNo="0" devices="tripinfo_OD354_NV.0" vType="NV" speedFactor="1.00" vaporized=""/>
    <tripinfo id="OD244_NV.0" depart="9.00" departLane="top0A4_0" departPos="5.10" departSpeed="10.00" departDelay="1.64" arrival="122.00" arrivalLane="A2left2_0" arrivalPos="286.40" arrivalSpeed="13.34" duration="113.00" routeLength="1176.73" waitingTime="17.00" waitingCount="1" stopTime="0.00" timeLoss="27.35" rerouteNo="0" devices="tripinfo_OD244_NV.0" vType="NV" speedFactor="1.00" vaporized=""/>
    <tripinfo id="OD21_RV.0" depart="16.00" departLane="top2C4_0" departPos="5.10" departSpeed="10.00" departDelay="0.63" arrival="123.00" arrivalLane="A4left4_1" arrivalPos="286.40" arrivalSpeed="12.70" duration="107.00" routeLength="1176.73" waitingTime="9.00" waitingCount="1" stopTime="0.00" timeLoss="20.93" rerouteNo="0" devices="tripinfo_OD21_RV.0" vType="RV" speedFactor="1.00" vaporized=""/>
    <tripinfo id="OD65_NV.0" depart="54.00" departLane="bottom3D0_0" departPos="5.10" departSpeed="10.00" departDelay="0.88" arrival="124.00" arrivalLane="E0bottom4_0" arrivalPos="286.40" arrivalSpeed="13.35" duration="70.00" routeLength="858.56" waitingTime="0.00" waitingCount="0" stopTime="0.00" timeLoss="6.48" rerouteNo="0" devices="tripinfo_OD65_NV.0" vType="NV" speedFactor="1.00" vaporized=""/>
    <tripinfo id="OD169_NV.0" depart="17.00" departLane="left2A2_0" departPos="5.10" departSpeed="10.00" departDelay="0.59" arrival="125.00" arrivalLane="A0bottom0_1" arrivalPos="286.40" arrivalSpeed="13.32" duration="108.00" routeLength="1176.73" waitingTime="7.00" waitingCount="1" stopTime="0.00" timeLoss="21.86" rerouteNo="0" devices="tripinfo_OD169_NV.0" vType="NV" speedFactor="1.00" vaporized=""/>
    <tripinfo id="OD284_NV.1" depart="54.00" departLane="top4E4_0" departPos="5.10" departSpeed="10.00" departDelay="0.77" arrival="125.00" arrivalLane="D4top3_0" arrivalPos="286.40" arrivalSpeed="13.31" duration="71.00" routeLength="858.56" waitingTime="0.00" waitingCount="0" stopTime="0.00" timeLoss="7.01" rerouteNo="0" devices="tripinfo_OD284_NV.1" vType="NV" speedFactor="1.00" vaporized=""/>
    <tripinfo id="OD264_NV.0" depart="6.00" departLane="left3A3_0" departPos="5.10" departSpeed="10.00" departDelay="0.30" arrival="127.00" arrivalLane="A0bottom0_1" arrivalPos="286.40" arrivalSpeed="12.74" duration="121.00" routeLength="1476.73" waitingTime="0.00" waitingCount="0" stopTime="0.00" timeLoss="12.94" rerouteNo="0" devices="tripinfo_OD264_NV.0" vType="NV" speedFactor="1.00" vaporized=""/>
    <tripinfo id="OD21_RV.1" depart="36.00" departLane="top2C4_0" departPos="5.10" departSpeed="10.00" departDelay="0.64" arrival="129.00" arrivalLane="A4left4_1" arrivalPos="286.40" arrivalSpeed="13.54" duration="93.00" routeLength="1176.73" waitingTime="0.00" waitingCount="0" stopTime="0.00" timeLoss="7.08" rerouteNo="0" devices="tripinfo_OD21_RV.1" vType="RV" speedFactor="1.00" vaporized=""/>
    <tripinfo id="OD288_RV.0" depart="59.00" departLane="top1B4_0" departPos="5.10" departSpeed="10.00" departDelay="1.65" arrival="130.00" arrivalLane="A4left4_1" arrivalPos="286.40" arrivalSpeed="13.26" duration="71.00" routeLength="876.73" waitingTime="0.00" waitingCount="0" stopTime="0.00" timeLoss="7.32" rerouteNo="0" devices="tripinfo_OD288_RV.0" vType="RV" speedFactor="1.00" vaporized=""/>
    <tripinfo id="OD374_NV.0" depart="12.00" departLane="right1E1_0" departPos="5.10" departSpeed="10.00" departDelay="2.10" arrival="131.00" arrivalLane="E3right3_0" arrivalPos="286.40" arrivalSpeed="12.85" duration="119.00" routeLength="1158.56" waitingTime="20.00" waitingCount="1" stopTime="0.00" timeLoss="34.21" rerouteNo="0" devices="tripinfo_OD374_NV.0" vType="NV" speedFactor="1.00" vaporized=""/>
    <tripinfo id="OD320_NV.0" depart="28.00" departLane="left4A4_0" departPos="5.10" departSpeed="10.00" departDelay="1.49" arrival="131.00" arrivalLane="A2left2_0" arrivalPos="286.40" arrivalSpeed="13.56" duration="103.00" routeLength="1158.56" waitingTime="0.00" waitingCount="0" stopTime="0.00" timeLoss="17.39" rerouteNo="0" devices="tripinfo_OD320_NV.0" vType="NV" speedFactor="1.00" vaporized=""/>
    <tripinfo id="OD184_NV.0" depart="25.00" departLane="top3D4_0" departPos="5.10" departSpeed="10.00" departDelay="5.03" arrival="134.00" arrivalLane="B4top1_0" arrivalPos="286.40" arrivalSpeed="13.16" duration="109.00" routeLength="1158.56" waitingTime="8.00" waitingCount="1" stopTime="0.00" timeLoss="23.79" rerouteNo="0" devices="tripinfo_OD184_NV.0" vType="NV" speedFactor="1.00" vaporized=""/>
    <tripinfo id="OD50_NV.1" depart="61.00" departLane="right2E2_0" departPos="5.10" departSpeed="10.00" departDelay="1.59" arrival="134.00" arrivalLane="E3right3_0" arrivalPos="286.40" arrivalSpeed="12.52" duration="73.00" routeLength="858.56" waitingTime="0.00" waitingCount="0" stopTime="0.00" timeLoss="8.45" rerouteNo="0" devices="tripinfo_OD50_NV.1" vType="NV" speedFactor="1.00" vaporized=""/>
    <tripinfo id="OD205_NV.0" depart="12.00" departLane="bottom1B0_0" departPos="5.10" departSpeed="10.00" departDelay="2.02" arrival="136.00" arrivalLane="A0left0_1" arrivalPos="286.40" arrivalSpeed="13.38" duration="124.00" routeLength="892.21" waitingTime="46.00" waitingCount="2" stopTime="0.00" timeLoss="58.27" rerouteNo="0" devices="tripinfo_OD205_NV.0" vType="NV" speedFactor="1.00" vaporized=""/>
    <tripinfo id="OD76_NV.0" depart="65.00" departLane="right0E0_0" departPos="5.10" departSpeed="10.00" departDelay="0.41" arrival="136.00" arrivalLane="E1right1_0" arrivalPos="286.40" arrivalSpeed="13.52" duration="71.00" routeLength="858.56" waitingTime="0.00" waitingCount="0" stopTime="0.00" timeLoss="7.48" rerouteNo="0" devices="tripinfo_OD76_NV.0" vType="NV" speedFactor="1.00" vaporized=""/>
    <tripinfo id="OD184_RV.0" depart="29.00" departLane="top3D4_0" departPos="5.10" departSpeed="10.00" departDelay="1.79" arrival="137.00" arrivalLane="B4top1_0" arrivalPos="286.40" arrivalSpeed="13.26" duration="108.00" routeLength="1158.56" waitingTime="5.00" waitingCount="1" stopTime="0.00" timeLoss="22.18" rerouteNo="0" devices="tripinfo_OD184_RV.0" vType="RV" speedFactor="1.00" vaporized=""/>
    <tripinfo id="OD358_NV.0" depart="29.00" departLane="bottom2C0_0" departPos="5.10" departSpeed="10.00" departDelay="0.61" arrival="138.00" arrivalLane="A0left0_1" arrivalPos="286.40" arrivalSpeed="12.43" duration="109.00" routeLength="1192.21" waitingTime="9.00" waitingCount="1" stopTime="0.00" timeLoss="21.65" rerouteNo="0" devices="tripinfo_OD358_NV.0" vType="NV" speedFactor="1.00" vaporized=""/>
    <tripinfo id="OD291_NV.0" depart="3.00" departLane="top1B4_0" departPos="5.10" departSpeed="10.00" departDelay="0.51" arrival="142.00" arrivalLane="A3left3_1" arrivalPos="286.40" arrivalSpeed="13.69" duration="139.00" routeLength="1176.73" waitingTime="41.00" waitingCount="1" stopTime="0.00" timeLoss="53.21" rerouteNo="0" devices="tripinfo_OD291_NV.0" vType="NV" speedFactor="1.00" vaporized=""/>
    <tripinfo id="OD50_NV.2" depart="71.00" departLane="right2E2_0" departPos="5.10" departSpeed="10.00" departDelay="0.74" arrival="142.00" arrivalLane="E3right3_0" arrivalPos="286.40" arrivalSpeed="13.79" duration="71.00" routeLength="858.56" waitingTime="0.00" waitingCount="0" stopTime="0.00" timeLoss="7.10" rerouteNo="0" devices="tripinfo_OD50_NV.2" vType="NV" speedFactor="1.00" vaporized=""/>
    <tripinfo id="OD257_NV.0" depart="38.00" departLane="left3A3_0" departPos="5.10" departSpeed="10.00" departDelay="0.13" arrival="146.00" arrivalLane="A1left1_0" arrivalPos="286.40" arrivalSpeed="12.96" duration="108.00" routeLength="1158.56" waitingTime="10.00" waitingCount="1" stopTime="0.00" timeLoss="23.38" rerouteNo="0" devices="tripinfo_OD257_NV.0" vType="NV" speedFactor="1.00" vaporized=""/>
    <tripinfo id="OD7_NV.0" depart="77.00" departLane="right3E3_0" departPos="5.10" departSpeed="10.00" departDelay="0.10" arrival="146.00" arrivalLane="E4top4_1" arrivalPos="286.40" arrivalSpeed="12.46" duration="69.00" routeLength="876.73" waitingTime="0.00" waitingCount="0" stopTime="0.00" timeLoss="4.77" rerouteNo="0" devices="tripinfo_OD7_NV.0" vType="NV" speedFactor="1.00" vaporized=""/>
    <tripinfo id="OD199_NV.0" depart="16.00" departLane="bottom1B0_0" departPos="5.10" departSpeed="10.00" departDelay="3.02" arrival="147.00" arrivalLane="E0bottom4_0" arrivalPos="286.40" arrivalSpeed="12.57" duration="131.00" routeLength="1458.56" waitingTime="4.00" waitingCount="1" stopTime="0.00" timeLoss="24.23" rerouteNo="0" devices="tripinfo_OD199_NV.0" vType="NV" speedFactor="1.00" vaporized=""/>
    <tripinfo id="OD176_NV.1" depart="76.00" departLane="top3D4_0" departPos="5.10" departSpeed="10.00" departDelay="1.17" arrival="147.00" arrivalLane="C4top2_0" arrivalPos="286.40" arrivalSpeed="13.74" duration="71.00" routeLength="858.56" waitingTime="0.00" waitingCount="0" stopTime="0.00" timeLoss="6.68" rerouteNo="0" devices="tripinfo_OD176_NV.1" vType="NV" speedFactor="1.00" vaporized=""/>
    <tripinfo id="OD368_NV.0" depart="78.00" departLane="right1E1_0" departPos="5.10" departSpeed="10.00" departDelay="0.11" arrival="149.00" arrivalLane="E2right2_0" arrivalPos="286.40" arrivalSpeed="12.88" duration="71.00" routeLength="858.56" waitingTime="0.00" waitingCount="0" stopTime="0.00" timeLoss="8.19" rerouteNo="0" devices="tripinfo_OD368_NV.0" vType="NV" speedFactor="1.00" vaporized=""/>
    <tripinfo id="OD369_NV.0" depart="5.00" departLane="right1E1_0" departPos="5.10" departSpeed="10.00" departDelay="2.04" arrival="150.00" arrivalLane="E4top4_1" arrivalPos="286.40" arrivalSpeed="12.60" duration="145.00" routeLength="1476.73" waitingTime="25.00" waitingCount="1" stopTime="0.00" timeLoss="38.04" rerouteNo="0" devices="tripinfo_OD369_NV.0" vType="NV" speedFactor="1.00" vaporized=""/>
    <tripinfo id="OD339_RV.0" depart="89.00" departLane="bottom0A0_0" departPos="5.10" departSpeed="10.00" departDelay="0.59" arrival="150.00" arrivalLane="A0left0_2" arrivalPos="286.40" arrivalSpeed="12.53" duration="61.00" routeLength="592.21" waitingTime="9.00" waitingCount="1" stopTime="0.00" timeLoss="17.37" rerouteNo="0" devices="tripinfo_OD339_RV.0" vType="RV" speedFactor="1.00" vaporized=""/>
    <tripinfo id="OD52_NV.0" depart="59.00" departLane="right2E2_0" departPos="5.10" departSpeed="10.00" departDelay="0.01" arrival="153.00" arrivalLane="E4right4_0" arrivalPos="286.40" arrivalSpeed="13.81" duration="94.00" routeLength="1158.56" waitingTime="0.00" waitingCount="0" stopTime="0.00" timeLoss="9.16" rerouteNo="0" devices="tripinfo_OD52_NV.0" vType="NV" speedFactor="1.00" vaporized=""/>
    <tripinfo id="OD310_NV.3" depart="82.00" departLane="left4A4_0" departPos="5.10" departSpeed="10.00" departDelay="0.90" arrival="154.00" arrivalLane="A3left3_0" arrivalPos="286.40" arrivalSpeed="13.45" duration="72.00" routeLength="858.56" waitingTime="0.00" waitingCount="0" stopTime="0.00" timeLoss="7.52" rerouteNo="0" devices="tripinfo_OD310_NV.3" vType="NV" speedFactor="1.00" vaporized=""/>
    <tripinfo id="OD244_NV.1" depart="45.00" departLane="top0A4_0" departPos="5.10" departSpeed="10.00" departDelay="0.91" arrival="157.00" arrivalLane="A2left2_0" arrivalPos="286.40" arrivalSpeed="13.79" duration="112.00" routeLength="1176.73" waitingTime="14.00" waitingCount="1" stopTime="0.00" timeLoss="26.28" rerouteNo="0" devices="tripinfo_OD244_NV.1" vType="NV" speedFactor="1.00" vaporized=""/>
    <tripinfo id="OD189_RV.0" depart="8.00" departLane="top3D4_0" departPos="5.10" departSpeed="10.00" departDelay="0.02" arrival="160.00" arrivalLane="D4top3_1" arrivalPos="286.40" arrivalSpeed="12.80" duration="152.00" routeLength="1737.70" waitingTime="7.00" waitingCount="1" stopTime="0.00" timeLoss="24.32" rerouteNo="0" devices="tripinfo_OD189_RV.0" vType="RV" speedFactor="1.00" vaporized=""/>
    <tripinfo id="OD252_RV.0" depart="10.00" departLane="left3A3_0" departPos="5.10" departSpeed="10.00" departDelay="0.17" arrival="161.00" arrivalLane="C4top2_1" arrivalPos="286.40" arrivalSpeed="12.86" duration="151.00" routeLength="1492.21" waitingTime="24.00" waitingCount="2" stopTime="0.00" timeLoss="42.63" rerouteNo="0" devices="tripinfo_OD252_RV.0" vType="RV" speedFactor="1.00" vaporized=""/>
    <tripinfo id="OD14_NV.0" depart="90.00" departLane="right3E3_0" departPos="5.10" departSpeed="10.00" departDelay="0.85" arrival="161.00" arrivalLane="E4right4_0" arrivalPos="286.40" arrivalSpeed="13.03" duration="71.00" routeLength="858.56" waitingTime="0.00" waitingCount="0" stopTime="0.00" timeLoss="7.31" rerouteNo="0" devices="tripinfo_OD14_NV.0" vType="NV" speedFactor="1.00" vaporized=""/>
    <tripinfo id="OD169_NV.1" depart="46.00" departLane="left2A2_0" departPos="5.10" departSpeed="10.00" departDelay="0.47" arrival="164.00" arrivalLane="A0bottom0_1" arrivalPos="286.40" arrivalSpeed="13.09" duration="118.00" routeLength="1176.73" waitingTime="20.00" waitingCount="1" stopTime="0.00" timeLoss="32.52" rerouteNo="0" devices="tripinfo_OD169_NV.1" vType="NV" speedFactor="1.00" vaporized=""/>
    <tripinfo id="OD131_NV.0" depart="80.00" departLane="left1A1_0" departPos="5.10" departSpeed="10.00" departDelay="0.33" arrival="166.00" arrivalLane="A0bottom0_1" arrivalPos="286.40" arrivalSpeed="13.05" duration="86.00" routeLength="876.73" waitingTime="11.00" waitingCount="1" stopTime="0.00" timeLoss="21.99" rerouteNo="0" devices="tripinfo_OD131_NV.0" vType="NV" speedFactor="1.00" vaporized=""/>
    <tripinfo id="OD369_NV.1" depart="26.00" departLane="right1E1_0" departPos="5.10" departSpeed="10.00" departDelay="0.50" arrival="168.00" arrivalLane="E4top4_1" arrivalPos="286.40" arrivalSpeed="13.23" duration="142.00" routeLength="1476.73" waitingTime="18.00" waitingCount="2" stopTime="0.00" timeLoss="35.10" rerouteNo="0" devices="tripinfo_OD369_NV.1" vType="NV" speedFactor="1.00" vaporized=""/>
    <tripinfo id="OD321_NV.0" depart="20.00" departLane="left4A4_0" departPos="5.10" departSpeed="10.00" departDelay="0.96" arrival="170.00" arrivalLane="A0bottom0_1" arrivalPos="286.40" arrivalSpeed="13.19" duration="150.00" routeLength="1776.73" waitingTime="6.00" waitingCount="1" stopTime="0.00" timeLoss="21.01" rerouteNo="0" devices="tripinfo_OD321_NV.0" vType="NV" speedFactor="1.00" vaporized=""/>
    <tripinfo id="OD368_NV.1" depart="101.00" departLane="right1E1_0" departPos="5.10" departSpeed="10.00" departDelay="0.86" arrival="171.00" arrivalLane="E2right2_0" arrivalPos="286.40" arrivalSpeed="13.04" duration="70.00" routeLength="858.56" waitingTime="0.00" waitingCount="0" stopTime="0.00" timeLoss="7.22" rerouteNo="0" devices="tripinfo_OD368_NV.1" vType="NV" speedFactor="1.00" vaporized=""/>
    <tripinfo id="OD310_NV.4" depart="101.00" departLane="left4A4_0" departPos="5.10" departSpeed="10.00" departDelay="0.28" arrival="172.00" arrivalLane="A3left3_0" arrivalPos="286.40" arrivalSpeed="12.81" duration="71.00" routeLength="858.56" waitingTime="0.00" waitingCount="0" stopTime="0.00" timeLoss="7.40" rerouteNo="0" devices="tripinfo_OD310_NV.4" vType="NV" speedFactor="1.00" vaporized=""/>
    <tripinfo id="OD354_RV.0" depart="92.00" departLane="bottom2C0_0" departPos="5.10" departSpeed="10.00" departDelay="1.84" arrival="173.00" arrivalLane="B0bottom1_2" arrivalPos="286.40" arrivalSpeed="13.42" duration="81.00" routeLength="889.52" waitingTime="3.00" waitingCount="1" stopTime="0.00" timeLoss="15.02" rerouteNo="0" devices="tripinfo_OD354_RV.0" vType="RV" speedFactor="1.00" vaporized=""/>
    <tripinfo id="OD87_NV.0" depart="25.00" departLane="right0E0_0" departPos="5.10" departSpeed="10.00" departDelay="0.35" arrival="175.00" arrivalLane="B0bottom1_2" arrivalPos="286.40" arrivalSpeed="13.64" duration="150.00" routeLength="1492.21" waitingTime="29.00" waitingCount="1" stopTime="0.00" timeLoss="41.59" rerouteNo="0" devices="tripinfo_OD87_NV.0" vType="NV" speedFactor="1.00" vaporized=""/>
    <tripinfo id="OD76_NV.1" depart="104.00" departLane="right0E0_0" departPos="5.10" departSpeed="10.00" departDelay="0.91" arrival="175.00" arrivalLane="E1right1_0" arrivalPos="286.40" arrivalSpeed="12.51" duration="71.00" routeLength="858.56" waitingTime="0.00" waitingCount="0" stopTime="0.00" timeLoss="6.89" rerouteNo="0" devices="tripinfo_OD76_NV.1" vType="NV" speedFactor="1.00" vaporized=""/>
    <tripinfo id="OD192_NV.0" depart="106.00" departLane="bottom1B0_0" departPos="5.10" departSpeed="10.00" departDelay="0.31" arrival="177.00" arrivalLane="C0bottom2_0" arrivalPos="286.40" arrivalSpeed="13.61" duration="71.00" routeLength="858.56" waitingTime="0.00" waitingCount="0" stopTime="0.00" timeLoss="6.98" rerouteNo="0" devices="tripinfo_OD192_NV.0" vType="NV" speedFactor="1.00" vaporized=""/>
    <tripinfo id="OD149_NV.0" depart="7.00" departLane="left0A0_0" departPos="5.10" departSpeed="10.00" departDelay="0.02" arrival="178.00" arrivalLane="A2left2_2" arrivalPos="286.40" arrivalSpeed="12.95" duration="171.00" routeLength="1189.52" waitingTime="69.00" waitingCount="2" stopTime="0.00" timeLoss="83.82" rerouteNo="0" devices="tripinfo_OD149_NV.0" vType="NV" speedFactor="1.00" vaporized=""/>
    <tripinfo id="OD161_NV.0" depart="108.00" departLane="left2A2_0" departPos="5.10" departSpeed="10.00" departDelay="0.85" arrival="179.00" arrivalLane="A1left1_0" arrivalPos="286.40" arrivalSpeed="13.81" duration="71.00" routeLength="858.56" waitingTime="0.00" waitingCount="0" stopTime="0.00" timeLoss="7.37" rerouteNo="0" devices="tripinfo_OD161_NV.0" vType="NV" speedFactor="1.00" vaporized=""/>
    <tripinfo id="OD113_NV.0" depart="35.00" departLane="right4E4_0" departPos="5.10" departSpeed="10.00" departDelay="0.56" arrival="180.00" arrivalLane="D4top3_0" arrivalPos="286.40" arrivalSpeed="12.98" duration="145.00" routeLength="876.73" waitingTime="70.00" waitingCount="1" stopTime="0.00" timeLoss="80.51" rerouteNo="0" devices="tripinfo_OD113_NV.0" vType="NV" speedFactor="1.00" vaporized=""/>
    <tripinfo id="OD149_NV.1" depart="40.00" departLane="left0A0_0" departPos="5.10" departSpeed="10.00" departDelay="0.33" arrival="180.00" arrivalLane="A2left2_2" arrivalPos="286.40" arrivalSpeed="13.02" duration="140.00" routeLength="1189.52" waitingTime="37.00" waitingCount="1" stopTime="0.00" timeLoss="53.04" rerouteNo="0" devices="tripinfo_OD149_NV.1" vType="NV" speedFactor="1.00" vaporized=""/>
    <tripinfo id="OD194_NV.0" depart="83.00" departLane="bottom1B0_0" departPos="5.10" departSpeed="10.00" departDelay="1.99" arrival="181.00" arrivalLane="D0bottom3_0" arrivalPos="286.40" arrivalSpeed="13.22" duration="98.00" routeLength="1158.56" waitingTime="0.00" waitingCount="0" stopTime="0.00" timeLoss="13.08" rerouteNo="0" devices="tripinfo_OD194_NV.0" vType="NV" speedFactor="1.00" vaporized=""/>
    <tripinfo id="OD206_NV.0" depart="19.00" departLane="bottom1B0_0" departPos="5.10" departSpeed="10.00" departDelay="0.46" arrival="182.00" arrivalLane="A2left2_2" arrivalPos="286.40" arrivalSpeed="12.77" duration="163.00" routeLength="1471.35" waitingTime="36.00" waitingCount="1" stopTime="0.00" timeLoss="54.37" rerouteNo="0" devices="tripinfo_OD206_NV.0" vType="NV" speedFactor="1.00" vaporized=""/>
    <tripinfo id="OD179_NV.0" depart="57.00" departLane="top3D4_0" departPos="5.10" departSpeed="10.00" departDelay="0.69" arrival="182.00" arrivalLane="E4top4_2" arrivalPos="286.40" arrivalSpeed="13.46" duration="125.00" routeLength="889.52" waitingTime="46.00" waitingCount="2" stopTime="0.00" timeLoss="59.35" rerouteNo="0" devices="tripinfo_OD179_NV.0" vType="NV" speedFactor="1.00" vaporized=""/>
    <tripinfo id="OD320_NV.1" depart="76.00" departLane="left4A4_0" departPos="5.10" departSpeed="10.00" departDelay="1.44" arrival="182.00" arrivalLane="A2left2_0" arrivalPos="286.40" arrivalSpeed="12.67" duration="106.00" routeLength="1158.56" waitingTime="7.00" waitingCount="1" stopTime="0.00" timeLoss="21.16" rerouteNo="0" devices="tripinfo_OD320_NV.1" vType="NV" speedFactor="1.00" vaporized=""/>
    <tripinfo id="OD161_NV.1" depart="110.00" departLane="left2A2_0" departPos="5.10" departSpeed="10.00" departDelay="2.36" arrival="182.00" arrivalLane="A1left1_0" arrivalPos="286.40" arrivalSpeed="13.20" duration="72.00" routeLength="858.56" waitingTime="0.00" waitingCount="0" stopTime="0.00" timeLoss="7.83" rerouteNo="0" devices="tripinfo_OD161_NV.1" vType="NV" speedFactor="1.00" vaporized=""/>
    <tripinfo id="OD178_NV.0" depart="10.00" departLane="top3D4_0" departPos="5.10" departSpeed="10.00" departDelay="0.60" arrival="183.00" arrivalLane="E2right2_2" arrivalPos="286.40" arrivalSpeed="13.77" duration="173.00" routeLength="1471.35" waitingTime="44.00" waitingCount="2" stopTime="0.00" timeLoss="65.23" rerouteNo="0" devices="tripinfo_OD178_NV.0" vType="NV" speedFactor="1.00" vaporized=""/>
    <tripinfo id="OD174_NV.0" depart="19.00" departLane="top3D4_0" departPos="5.10" departSpeed="10.00" departDelay="0.66" arrival="183.00" arrivalLane="A4left4_1" arrivalPos="286.40" arrivalSpeed="12.72" duration="164.00" routeLength="1476.73" waitingTime="44.00" waitingCount="1" stopTime="0.00" timeLoss="56.58" rerouteNo="0" devices="tripinfo_OD174_NV.0" vType="NV" speedFactor="1.00" vaporized=""/>
    <tripinfo id="OD179_NV.1" depart="75.00" departLane="top3D4_0" departPos="5.10" departSpeed="10.00" departDelay="0.77" arrival="184.00" arrivalLane="E4top4_2" arrivalPos="286.40" arrivalSpeed="12.58" duration="109.00" routeLength="889.52" waitingTime="29.00" waitingCount="2" stopTime="0.00" timeLoss="43.28" rerouteNo="0" devices="tripinfo_OD179_NV.1" vType="NV" speedFactor="1.00" vaporized=""/>
    <tripinfo id="OD327_RV.0" depart="65.00" departLane="bottom0A0_0" departPos="5.10" departSpeed="10.00" departDelay="0.72" arrival="185.00" arrivalLane="D0bottom3_0" arrivalPos="286.40" arrivalSpeed="12.82" duration="120.00" routeLength="1458.56" waitingTime="0.00" waitingCount="0" stopTime="0.00" timeLoss="12.77" rerouteNo="0" devices="tripinfo_OD327_RV.0" vType="RV" speedFactor="1.00" vaporized=""/>
    <tripinfo id="OD20_NV.0" depart="2.00" departLane="top2C4_0" departPos="5.10" departSpeed="10.00" departDelay="0.73" arrival="186.00" arrivalLane="C0bottom2_1" arrivalPos="286.40" arrivalSpeed="13.78" duration="184.00" routeLength="1794.90" waitingTime="28.00" waitingCount="3" stopTime="0.00" timeLoss="54.48" rerouteNo="0" devices="tripinfo_OD20_NV.0" vType="NV" speedFactor="1.00" vaporized=""/>
    <tripinfo id="OD178_NV.2" depart="47.00" departLane="top3D4_0" departPos="5.10" departSpeed="10.00" departDelay="0.58" arrival="186.00" arrivalLane="E2right2_2" arrivalPos="286.40" arrivalSpeed="13.02" duration="139.00" routeLength="1471.35" waitingTime="11.00" waitingCount="1" stopTime="0.00" timeLoss="30.68" rerouteNo="0" devices="tripinfo_OD178_NV.2" vType="NV" speedFactor="1.00" vaporized=""/>