<?xml version="1.0" encoding="UTF-8"?>

<!-- generated on 2025-02-16 03:57:54 by Eclipse SUMO sumo Version 1.20.0
<configuration xmlns:xsi="http://www.w3.org/2001/XMLSchema-instance" xsi:noNamespaceSchemaLocation="http://sumo.dlr.de/xsd/sumoConfiguration.xsd">

    <input>
        <net-file value="./envs/5x5/5x5.net.xml"/>
        <route-files value="./envs/5x5/Demand_20.rou.xml"/>
    </input>

    <output>
        <tripinfo-output value="./online_train/5x5\online_train_SACTF-mask-onlySV_multi_agents/tripinfo/tripinfo_ep75.xml"/>
    </output>

    <time>
        <begin value="0"/>
    </time>

    <processing>
        <time-to-teleport value="-1"/>
        <waiting-time-memory value="1800"/>
    </processing>

    <report>
        <no-step-log value="true"/>
    </report>

    <traci_server>
        <remote-port value="57037"/>
    </traci_server>

</configuration>
-->

<tripinfos xmlns:xsi="http://www.w3.org/2001/XMLSchema-instance" xsi:noNamespaceSchemaLocation="http://sumo.dlr.de/xsd/tripinfo_file.xsd">
    <tripinfo id="OD305_NV.0" depart="11.00" departLane="left4A4_0" departPos="5.10" departSpeed="10.00" departDelay="1.44" arrival="66.00" arrivalLane="A4top0_2" arrivalPos="286.40" arrivalSpeed="12.80" duration="55.00" routeLength="592.21" waitingTime="3.00" waitingCount="1" stopTime="0.00" timeLoss="11.42" rerouteNo="0" devices="tripinfo_OD305_NV.0" vType="NV" speedFactor="1.00" vaporized=""/>
    <tripinfo id="OD158_NV.0" depart="4.00" departLane="left2A2_0" departPos="5.10" departSpeed="10.00" departDelay="0.74" arrival="75.00" arrivalLane="A3left3_2" arrivalPos="286.40" arrivalSpeed="13.73" duration="71.00" routeLength="889.52" waitingTime="0.00" waitingCount="0" stopTime="0.00" timeLoss="5.36" rerouteNo="0" devices="tripinfo_OD158_NV.0" vType="NV" speedFactor="1.00" vaporized=""/>
    <tripinfo id="OD310_NV.0" depart="4.00" departLane="left4A4_0" departPos="5.10" departSpeed="10.00" departDelay="1.48" arrival="76.00" arrivalLane="A3left3_0" arrivalPos="286.40" arrivalSpeed="12.77" duration="72.00" routeLength="858.56" waitingTime="0.00" waitingCount="0" stopTime="0.00" timeLoss="8.06" rerouteNo="0" devices="tripinfo_OD310_NV.0" vType="NV" speedFactor="1.00" vaporized=""/>
    <tripinfo id="OD310_NV.1" depart="8.00" departLane="left4A4_0" departPos="5.10" departSpeed="10.00" departDelay="3.20" arrival="79.00" arrivalLane="A3left3_0" arrivalPos="286.40" arrivalSpeed="13.34" duration="71.00" routeLength="858.56" waitingTime="0.00" waitingCount="0" stopTime="0.00" timeLoss="6.86" rerouteNo="0" devices="tripinfo_OD310_NV.1" vType="NV" speedFactor="1.00" vaporized=""/>
    <tripinfo id="OD102_NV.0" depart="37.00" departLane="right4E4_0" departPos="5.10" departSpeed="10.00" departDelay="0.87" arrival="84.00" arrivalLane="E4top4_0" arrivalPos="286.40" arrivalSpeed="12.53" duration="47.00" routeLength="576.73" waitingTime="0.00" waitingCount="0" stopTime="0.00" timeLoss="4.40" rerouteNo="0" devices="tripinfo_OD102_NV.0" vType="NV" speedFactor="1.00" vaporized=""/>
    <tripinfo id="OD129_NV.0" depart="19.00" departLane="left1A1_0" departPos="5.10" departSpeed="10.00" departDelay="0.11" arrival="90.00" arrivalLane="A0left0_0" arrivalPos="286.40" arrivalSpeed="13.02" duration="71.00" routeLength="858.56" waitingTime="0.00" waitingCount="0" stopTime="0.00" timeLoss="7.37" rerouteNo="0" devices="tripinfo_OD129_NV.0" vType="NV" speedFactor="1.00" vaporized=""/>
    <tripinfo id="OD284_NV.0" depart="22.00" departLane="top4E4_0" departPos="5.10" departSpeed="10.00" departDelay="1.14" arrival="92.00" arrivalLane="D4top3_0" arrivalPos="286.40" arrivalSpeed="13.72" duration="70.00" routeLength="858.56" waitingTime="0.00" waitingCount="0" stopTime="0.00" timeLoss="6.71" rerouteNo="0" devices="tripinfo_OD284_NV.0" vType="NV" speedFactor="1.00" vaporized=""/>
    <tripinfo id="OD354_NV.0" depart="10.00" departLane="bottom2C0_0" departPos="5.10" departSpeed="10.00" departDelay="0.22" arrival="95.00" arrivalLane="B0bottom1_2" arrivalPos="286.40" arrivalSpeed="12.58" duration="85.00" routeLength="889.52" waitingTime="8.00" waitingCount="1" stopTime="0.00" timeLoss="18.99" rerouteNo="0" devices="tripinfo_OD354_NV.0" vType="NV" speedFactor="1.00" vaporized=""/>
    <tripinfo id="OD370_NV.0" depart="29.00" departLane="right1E1_0" departPos="5.10" departSpeed="10.00" departDelay="0.78" arrival="99.00" arrivalLane="E0bottom4_1" arrivalPos="286.40" arrivalSpeed="13.79" duration="70.00" routeLength="892.21" waitingTime="0.00" waitingCount="0" stopTime="0.00" timeLoss="4.29" rerouteNo="0" devices="tripinfo_OD370_NV.0" vType="NV" speedFactor="1.00" vaporized=""/>
    <tripinfo id="OD291_NV.0" depart="3.00" departLane="top1B4_0" departPos="5.10" departSpeed="10.00" departDelay="0.51" arrival="100.00" arrivalLane="A3left3_1" arrivalPos="286.40" arrivalSpeed="13.82" duration="97.00" routeLength="1176.73" waitingTime="0.00" waitingCount="0" stopTime="0.00" timeLoss="10.40" rerouteNo="0" devices="tripinfo_OD291_NV.0" vType="NV" speedFactor="1.00" vaporized=""/>
    <tripinfo id="OD129_RV.0" depart="32.00" departLane="left1A1_0" departPos="5.10" departSpeed="10.00" departDelay="0.10" arrival="102.00" arrivalLane="A0left0_0" arrivalPos="286.40" arrivalSpeed="13.24" duration="70.00" routeLength="858.56" waitingTime="0.00" waitingCount="0" stopTime="0.00" timeLoss="6.57" rerouteNo="0" devices="tripinfo_OD129_RV.0" vType="RV" speedFactor="1.00" vaporized=""/>
    <tripinfo id="OD257_RV.0" depart="12.00" departLane="left3A3_0" departPos="5.10" departSpeed="10.00" departDelay="1.82" arrival="106.00" arrivalLane="A1left1_0" arrivalPos="286.40" arrivalSpeed="12.84" duration="94.00" routeLength="1158.56" waitingTime="0.00" waitingCount="0" stopTime="0.00" timeLoss="8.57" rerouteNo="0" devices="tripinfo_OD257_RV.0" vType="RV" speedFactor="1.00" vaporized=""/>
    <tripinfo id="OD158_NV.1" depart="13.00" departLane="left2A2_0" departPos="5.10" departSpeed="10.00" departDelay="1.11" arrival="107.00" arrivalLane="A3left3_2" arrivalPos="286.40" arrivalSpeed="13.34" duration="94.00" routeLength="889.52" waitingTime="19.00" waitingCount="1" stopTime="0.00" timeLoss="28.01" rerouteNo="0" devices="tripinfo_OD158_NV.1" vType="NV" speedFactor="1.00" vaporized=""/>
    <tripinfo id="OD142_NV.0" depart="31.00" departLane="left0A0_0" departPos="5.10" departSpeed="10.00" departDelay="0.33" arrival="109.00" arrivalLane="A1left1_2" arrivalPos="286.40" arrivalSpeed="12.64" duration="78.00" routeLength="889.52" waitingTime="2.00" waitingCount="1" stopTime="0.00" timeLoss="12.31" rerouteNo="0" devices="tripinfo_OD142_NV.0" vType="NV" speedFactor="1.00" vaporized=""/>
    <tripinfo id="OD310_NV.2" depart="38.00" departLane="left4A4_0" departPos="5.10" departSpeed="10.00" departDelay="0.76" arrival="109.00" arrivalLane="A3left3_0" arrivalPos="286.40" arrivalSpeed="12.85" duration="71.00" routeLength="858.56" waitingTime="0.00" waitingCount="0" stopTime="0.00" timeLoss="7.50" rerouteNo="0" devices="tripinfo_OD310_NV.2" vType="NV" speedFactor="1.00" vaporized=""/>
    <tripinfo id="OD176_NV.0" depart="40.00" departLane="top3D4_0" departPos="5.10" departSpeed="10.00" departDelay="0.16" arrival="111.00" arrivalLane="C4top2_0" arrivalPos="286.40" arrivalSpeed="13.89" duration="71.00" routeLength="858.56" waitingTime="0.00" waitingCount="0" stopTime="0.00" timeLoss="7.32" rerouteNo="0" devices="tripinfo_OD176_NV.0" vType="NV" speedFactor="1.00" vaporized=""/>
    <tripinfo id="OD45_NV.0" depart="6.00" departLane="right2E2_0" departPos="5.10" departSpeed="10.00" departDelay="0.70" arrival="118.00" arrivalLane="E4top4_1" arrivalPos="286.40" arrivalSpeed="12.79" duration="112.00" routeLength="1176.73" waitingTime="9.00" waitingCount="1" stopTime="0.00" timeLoss="26.49" rerouteNo="0" devices="tripinfo_OD45_NV.0" vType="NV" speedFactor="1.00" vaporized=""/>
    <tripinfo id="OD65_RV.0" depart="48.00" departLane="bottom3D0_0" departPos="5.10" departSpeed="10.00" departDelay="1.05" arrival="119.00" arrivalLane="E0bottom4_0" arrivalPos="286.40" arrivalSpeed="13.06" duration="71.00" routeLength="858.56" waitingTime="0.00" waitingCount="0" stopTime="0.00" timeLoss="7.04" rerouteNo="0" devices="tripinfo_OD65_RV.0" vType="RV" speedFactor="1.00" vaporized=""/>
    <tripinfo id="OD205_NV.0" depart="12.00" departLane="bottom1B0_0" departPos="5.10" departSpeed="10.00" departDelay="2.02" arrival="120.00" arrivalLane="A0left0_1" arrivalPos="286.40" arrivalSpeed="12.76" duration="108.00" routeLength="892.21" waitingTime="28.00" waitingCount="2" stopTime="0.00" timeLoss="43.00" rerouteNo="0" devices="tripinfo_OD205_NV.0" vType="NV" speedFactor="1.00" vaporized=""/>
    <tripinfo id="OD50_NV.0" depart="49.00" departLane="right2E2_0" departPos="5.10" departSpeed="10.00" departDelay="0.93" arrival="120.00" arrivalLane="E3right3_0" arrivalPos="286.40" arrivalSpeed="12.88" duration="71.00" routeLength="858.56" waitingTime="0.00" waitingCount="0" stopTime="0.00" timeLoss="6.94" rerouteNo="0" devices="tripinfo_OD50_NV.0" vType="NV" speedFactor="1.00" vaporized=""/>
    <tripinfo id="OD250_NV.0" depart="30.00" departLane="left3A3_0" departPos="5.10" departSpeed="10.00" departDelay="0.83" arrival="122.00" arrivalLane="A4left4_2" arrivalPos="286.40" arrivalSpeed="12.66" duration="92.00" routeLength="889.52" waitingTime="14.00" waitingCount="2" stopTime="0.00" timeLoss="26.69" rerouteNo="0" devices="tripinfo_OD250_NV.0" vType="NV" speedFactor="1.00" vaporized=""/>
    <tripinfo id="OD107_RV.0" depart="52.00" departLane="right4E4_0" departPos="5.10" departSpeed="10.00" departDelay="0.99" arrival="123.00" arrivalLane="E3right3_2" arrivalPos="286.40" arrivalSpeed="13.85" duration="71.00" routeLength="889.52" waitingTime="0.00" waitingCount="0" stopTime="0.00" timeLoss="4.89" rerouteNo="0" devices="tripinfo_OD107_RV.0" vType="RV" speedFactor="1.00" vaporized=""/>
    <tripinfo id="OD65_NV.0" depart="54.00" departLane="bottom3D0_0" departPos="5.10" departSpeed="10.00" departDelay="0.88" arrival="124.00" arrivalLane="E0bottom4_0" arrivalPos="286.40" arrivalSpeed="12.82" duration="70.00" routeLength="858.56" waitingTime="0.00" waitingCount="0" stopTime="0.00" timeLoss="6.82" rerouteNo="0" devices="tripinfo_OD65_NV.0" vType="NV" speedFactor="1.00" vaporized=""/>
    <tripinfo id="OD284_NV.1" depart="54.00" departLane="top4E4_0" departPos="5.10" departSpeed="10.00" departDelay="0.77" arrival="125.00" arrivalLane="D4top3_0" arrivalPos="286.40" arrivalSpeed="13.53" duration="71.00" routeLength="858.56" waitingTime="0.00" waitingCount="0" stopTime="0.00" timeLoss="6.91" rerouteNo="0" devices="tripinfo_OD284_NV.1" vType="NV" speedFactor="1.00" vaporized=""/>
    <tripinfo id="OD18_NV.0" depart="11.00" departLane="right3E3_0" departPos="5.10" departSpeed="10.00" departDelay="0.23" arrival="129.00" arrivalLane="D4top3_0" arrivalPos="286.40" arrivalSpeed="13.55" duration="118.00" routeLength="1155.87" waitingTime="19.00" waitingCount="1" stopTime="0.00" timeLoss="32.97" rerouteNo="0" devices="tripinfo_OD18_NV.0" vType="NV" speedFactor="1.00" vaporized=""/>
    <tripinfo id="OD365_NV.0" depart="7.00" departLane="right1E1_0" departPos="5.10" departSpeed="10.00" departDelay="0.05" arrival="131.00" arrivalLane="D0bottom3_1" arrivalPos="286.40" arrivalSpeed="13.78" duration="124.00" routeLength="1192.21" waitingTime="25.00" waitingCount="1" stopTime="0.00" timeLoss="37.33" rerouteNo="0" devices="tripinfo_OD365_NV.0" vType="NV" speedFactor="1.00" vaporized=""/>
    <tripinfo id="OD257_NV.0" depart="38.00" departLane="left3A3_0" departPos="5.10" departSpeed="10.00" departDelay="0.13" arrival="131.00" arrivalLane="A1left1_0" arrivalPos="286.40" arrivalSpeed="12.67" duration="93.00" routeLength="1158.56" waitingTime="0.00" waitingCount="0" stopTime="0.00" timeLoss="8.01" rerouteNo="0" devices="tripinfo_OD257_NV.0" vType="NV" speedFactor="1.00" vaporized=""/>
    <tripinfo id="OD370_NV.1" depart="31.00" departLane="right1E1_0" departPos="5.10" departSpeed="10.00" departDelay="1.52" arrival="132.00" arrivalLane="E0bottom4_1" arrivalPos="286.40" arrivalSpeed="13.40" duration="101.00" routeLength="892.21" waitingTime="24.00" waitingCount="1" stopTime="0.00" timeLoss="35.98" rerouteNo="0" devices="tripinfo_OD370_NV.1" vType="NV" speedFactor="1.00" vaporized=""/>
    <tripinfo id="OD50_NV.1" depart="61.00" departLane="right2E2_0" departPos="5.10" departSpeed="10.00" departDelay="1.59" arrival="132.00" arrivalLane="E3right3_0" arrivalPos="286.40" arrivalSpeed="13.68" duration="71.00" routeLength="858.56" waitingTime="0.00" waitingCount="0" stopTime="0.00" timeLoss="6.99" rerouteNo="0" devices="tripinfo_OD50_NV.1" vType="NV" speedFactor="1.00" vaporized=""/>
    <tripinfo id="OD169_RV.0" depart="7.00" departLane="left2A2_0" departPos="5.10" departSpeed="10.00" departDelay="0.60" arrival="133.00" arrivalLane="A0bottom0_1" arrivalPos="286.40" arrivalSpeed="13.05" duration="126.00" routeLength="1176.73" waitingTime="23.00" waitingCount="2" stopTime="0.00" timeLoss="40.24" rerouteNo="0" devices="tripinfo_OD169_RV.0" vType="RV" speedFactor="1.00" vaporized=""/>
    <tripinfo id="OD179_NV.0" depart="57.00" departLane="top3D4_0" departPos="5.10" departSpeed="10.00" departDelay="0.69" arrival="133.00" arrivalLane="E4top4_2" arrivalPos="286.40" arrivalSpeed="13.26" duration="76.00" routeLength="889.52" waitingTime="0.00" waitingCount="0" stopTime="0.00" timeLoss="10.34" rerouteNo="0" devices="tripinfo_OD179_NV.0" vType="NV" speedFactor="1.00" vaporized=""/>
    <tripinfo id="OD38_NV.0" depart="8.00" departLane="right2E2_0" departPos="5.10" departSpeed="10.00" departDelay="1.45" arrival="134.00" arrivalLane="E1right1_2" arrivalPos="286.40" arrivalSpeed="13.47" duration="126.00" routeLength="889.52" waitingTime="48.00" waitingCount="2" stopTime="0.00" timeLoss="60.58" rerouteNo="0" devices="tripinfo_OD38_NV.0" vType="NV" speedFactor="1.00" vaporized=""/>
    <tripinfo id="OD374_NV.0" depart="12.00" departLane="right1E1_0" departPos="5.10" departSpeed="10.00" departDelay="2.10" arrival="135.00" arrivalLane="E3right3_0" arrivalPos="286.40" arrivalSpeed="12.47" duration="123.00" routeLength="1158.56" waitingTime="21.00" waitingCount="1" stopTime="0.00" timeLoss="37.20" rerouteNo="0" devices="tripinfo_OD374_NV.0" vType="NV" speedFactor="1.00" vaporized=""/>
    <tripinfo id="OD169_NV.0" depart="17.00" departLane="left2A2_0" departPos="5.10" departSpeed="10.00" departDelay="0.59" arrival="135.00" arrivalLane="A0bottom0_1" arrivalPos="286.40" arrivalSpeed="13.28" duration="118.00" routeLength="1176.73" waitingTime="11.00" waitingCount="2" stopTime="0.00" timeLoss="32.33" rerouteNo="0" devices="tripinfo_OD169_NV.0" vType="NV" speedFactor="1.00" vaporized=""/>
    <tripinfo id="OD184_NV.0" depart="25.00" departLane="top3D4_0" departPos="5.10" departSpeed="10.00" departDelay="5.03" arrival="136.00" arrivalLane="B4top1_0" arrivalPos="286.40" arrivalSpeed="12.86" duration="111.00" routeLength="1158.56" waitingTime="10.00" waitingCount="1" stopTime="0.00" timeLoss="25.42" rerouteNo="0" devices="tripinfo_OD184_NV.0" vType="NV" speedFactor="1.00" vaporized=""/>
    <tripinfo id="OD76_NV.0" depart="65.00" departLane="right0E0_0" departPos="5.10" departSpeed="10.00" departDelay="0.41" arrival="136.00" arrivalLane="E1right1_0" arrivalPos="286.40" arrivalSpeed="13.38" duration="71.00" routeLength="858.56" waitingTime="0.00" waitingCount="0" stopTime="0.00" timeLoss="6.79" rerouteNo="0" devices="tripinfo_OD76_NV.0" vType="NV" speedFactor="1.00" vaporized=""/>
    <tripinfo id="OD184_RV.0" depart="29.00" departLane="top3D4_0" departPos="5.10" departSpeed="10.00" departDelay="1.79" arrival="138.00" arrivalLane="B4top1_0" arrivalPos="286.40" arrivalSpeed="12.83" duration="109.00" routeLength="1158.56" waitingTime="6.00" waitingCount="1" stopTime="0.00" timeLoss="23.42" rerouteNo="0" devices="tripinfo_OD184_RV.0" vType="RV" speedFactor="1.00" vaporized=""/>
    <tripinfo id="OD50_NV.2" depart="71.00" departLane="right2E2_0" departPos="5.10" departSpeed="10.00" departDelay="0.74" arrival="141.00" arrivalLane="E3right3_0" arrivalPos="286.40" arrivalSpeed="13.79" duration="70.00" routeLength="858.56" waitingTime="0.00" waitingCount="0" stopTime="0.00" timeLoss="6.65" rerouteNo="0" devices="tripinfo_OD50_NV.2" vType="NV" speedFactor="1.00" vaporized=""/>
    <tripinfo id="OD264_NV.0" depart="6.00" departLane="left3A3_0" departPos="5.10" departSpeed="10.00" departDelay="0.30" arrival="142.00" arrivalLane="A0bottom0_1" arrivalPos="286.40" arrivalSpeed="13.01" duration="136.00" routeLength="1476.73" waitingTime="11.00" waitingCount="1" stopTime="0.00" timeLoss="28.13" rerouteNo="0" devices="tripinfo_OD264_NV.0" vType="NV" speedFactor="1.00" vaporized=""/>
    <tripinfo id="OD372_NV.0" depart="57.00" departLane="right1E1_0" departPos="5.10" departSpeed="10.00" departDelay="0.58" arrival="146.00" arrivalLane="E0right0_2" arrivalPos="286.40" arrivalSpeed="13.87" duration="89.00" routeLength="889.52" waitingTime="9.00" waitingCount="1" stopTime="0.00" timeLoss="23.36" rerouteNo="0" devices="tripinfo_OD372_NV.0" vType="NV" speedFactor="1.00" vaporized=""/>
    <tripinfo id="OD176_NV.1" depart="76.00" departLane="top3D4_0" departPos="5.10" departSpeed="10.00" departDelay="1.17" arrival="146.00" arrivalLane="C4top2_0" arrivalPos="286.40" arrivalSpeed="13.50" duration="70.00" routeLength="858.56" waitingTime="0.00" waitingCount="0" stopTime="0.00" timeLoss="6.73" rerouteNo="0" devices="tripinfo_OD176_NV.1" vType="NV" speedFactor="1.00" vaporized=""/>
    <tripinfo id="OD309_NV.0" depart="31.00" departLane="left4A4_0" departPos="5.10" departSpeed="10.00" departDelay="0.45" arrival="147.00" arrivalLane="C4top2_2" arrivalPos="286.40" arrivalSpeed="13.86" duration="116.00" routeLength="1192.21" waitingTime="11.00" waitingCount="2" stopTime="0.00" timeLoss="29.21" rerouteNo="0" devices="tripinfo_OD309_NV.0" vType="NV" speedFactor="1.00" vaporized=""/>
    <tripinfo id="OD339_RV.0" depart="89.00" departLane="bottom0A0_0" departPos="5.10" departSpeed="10.00" departDelay="0.59" arrival="147.00" arrivalLane="A0left0_2" arrivalPos="286.40" arrivalSpeed="12.45" duration="58.00" routeLength="592.21" waitingTime="8.00" waitingCount="1" stopTime="0.00" timeLoss="14.33" rerouteNo="0" devices="tripinfo_OD339_RV.0" vType="RV" speedFactor="1.00" vaporized=""/>
    <tripinfo id="OD368_NV.0" depart="78.00" departLane="right1E1_0" departPos="5.10" departSpeed="10.00" departDelay="0.11" arrival="149.00" arrivalLane="E2right2_0" arrivalPos="286.40" arrivalSpeed="12.56" duration="71.00" routeLength="858.56" waitingTime="0.00" waitingCount="0" stopTime="0.00" timeLoss="6.53" rerouteNo="0" devices="tripinfo_OD368_NV.0" vType="NV" speedFactor="1.00" vaporized=""/>
    <tripinfo id="OD310_NV.3" depart="82.00" departLane="left4A4_0" departPos="5.10" departSpeed="10.00" departDelay="0.90" arrival="153.00" arrivalLane="A3left3_0" arrivalPos="286.40" arrivalSpeed="13.83" duration="71.00" routeLength="858.56" waitingTime="0.00" waitingCount="0" stopTime="0.00" timeLoss="7.59" rerouteNo="0" devices="tripinfo_OD310_NV.3" vType="NV" speedFactor="1.00" vaporized=""/>
    <tripinfo id="OD358_NV.0" depart="29.00" departLane="bottom2C0_0" departPos="5.10" departSpeed="10.00" departDelay="0.61" arrival="158.00" arrivalLane="A0left0_1" arrivalPos="286.40" arrivalSpeed="12.87" duration="129.00" routeLength="1192.21" waitingTime="30.00" waitingCount="1" stopTime="0.00" timeLoss="42.12" rerouteNo="0" devices="tripinfo_OD358_NV.0" vType="NV" speedFactor="1.00" vaporized=""/>
    <tripinfo id="OD353_RV.0" depart="6.00" departLane="bottom2C0_0" departPos="5.10" departSpeed="10.00" departDelay="3.40" arrival="159.00" arrivalLane="E0right0_1" arrivalPos="286.40" arrivalSpeed="13.53" duration="153.00" routeLength="1176.73" waitingTime="49.00" waitingCount="2" stopTime="0.00" timeLoss="67.16" rerouteNo="0" devices="tripinfo_OD353_RV.0" vType="RV" speedFactor="1.00" vaporized=""/>
    <tripinfo id="OD301_NV.0" depart="1.00" departLane="top1B4_0" departPos="5.10" departSpeed="10.00" departDelay="0.26" arrival="161.00" arrivalLane="A2left2_0" arrivalPos="286.40" arrivalSpeed="12.44" duration="160.00" routeLength="1455.87" waitingTime="38.00" waitingCount="1" stopTime="0.00" timeLoss="52.91" rerouteNo="0" devices="tripinfo_OD301_NV.0" vType="NV" speedFactor="1.00" vaporized=""/>
    <tripinfo id="OD21_RV.0" depart="16.00" departLane="top2C4_0" departPos="5.10" departSpeed="10.00" departDelay="0.63" arrival="161.00" arrivalLane="A4left4_1" arrivalPos="286.40" arrivalSpeed="13.82" duration="145.00" routeLength="1176.73" waitingTime="41.00" waitingCount="2" stopTime="0.00" timeLoss="59.63" rerouteNo="0" devices="tripinfo_OD21_RV.0" vType="RV" speedFactor="1.00" vaporized=""/>
    <tripinfo id="OD7_NV.0" depart="77.00" departLane="right3E3_0" departPos="5.10" departSpeed="10.00" departDelay="0.10" arrival="161.00" arrivalLane="E4top4_1" arrivalPos="286.40" arrivalSpeed="13.52" duration="84.00" routeLength="876.73" waitingTime="9.00" waitingCount="1" stopTime="0.00" timeLoss="19.48" rerouteNo="0" devices="tripinfo_OD7_NV.0" vType="NV" speedFactor="1.00" vaporized=""/>
    <tripinfo id="OD14_NV.0" depart="90.00" departLane="right3E3_0" departPos="5.10" departSpeed="10.00" departDelay="0.85" arrival="161.00" arrivalLane="E4right4_0" arrivalPos="286.40" arrivalSpeed="13.17" duration="71.00" routeLength="858.56" waitingTime="0.00" waitingCount="0" stopTime="0.00" timeLoss="7.82" rerouteNo="0" devices="tripinfo_OD14_NV.0" vType="NV" speedFactor="1.00" vaporized=""/>
    <tripinfo id="OD288_RV.0" depart="59.00" departLane="top1B4_0" departPos="5.10" departSpeed="10.00" departDelay="1.65" arrival="163.00" arrivalLane="A4left4_1" arrivalPos="286.40" arrivalSpeed="13.58" duration="104.00" routeLength="876.73" waitingTime="26.00" waitingCount="1" stopTime="0.00" timeLoss="40.00" rerouteNo="0" devices="tripinfo_OD288_RV.0" vType="RV" speedFactor="1.00" vaporized=""/>
    <tripinfo id="OD320_NV.0" depart="28.00" departLane="left4A4_0" departPos="5.10" departSpeed="10.00" departDelay="1.49" arrival="164.00" arrivalLane="A2left2_0" arrivalPos="286.40" arrivalSpeed="13.62" duration="136.00" routeLength="1158.56" waitingTime="36.00" waitingCount="1" stopTime="0.00" timeLoss="50.47" rerouteNo="0" devices="tripinfo_OD320_NV.0" vType="NV" speedFactor="1.00" vaporized=""/>
    <tripinfo id="OD21_RV.1" depart="36.00" departLane="top2C4_0" departPos="5.10" departSpeed="10.00" departDelay="0.64" arrival="165.00" arrivalLane="A4left4_1" arrivalPos="286.40" arrivalSpeed="13.62" duration="129.00" routeLength="1176.73" waitingTime="26.00" waitingCount="1" stopTime="0.00" timeLoss="43.29" rerouteNo="0" devices="tripinfo_OD21_RV.1" vType="RV" speedFactor="1.00" vaporized=""/>
    <tripinfo id="OD52_NV.0" depart="59.00" departLane="right2E2_0" departPos="5.10" departSpeed="10.00" departDelay="0.01" arrival="169.00" arrivalLane="E4right4_0" arrivalPos="286.40" arrivalSpeed="13.55" duration="110.00" routeLength="1158.56" waitingTime="11.00" waitingCount="1" stopTime="0.00" timeLoss="25.05" rerouteNo="0" devices="tripinfo_OD52_NV.0" vType="NV" speedFactor="1.00" vaporized=""/>
    <tripinfo id="OD369_NV.0" depart="5.00" departLane="right1E1_0" departPos="5.10" departSpeed="10.00" departDelay="2.04" arrival="170.00" arrivalLane="E4top4_1" arrivalPos="286.40" arrivalSpeed="13.73" duration="165.00" routeLength="1476.73" waitingTime="38.00" waitingCount="2" stopTime="0.00" timeLoss="58.07" rerouteNo="0" devices="tripinfo_OD369_NV.0" vType="NV" speedFactor="1.00" vaporized=""/>
    <tripinfo id="OD322_NV.0" depart="34.00" departLane="left4A4_0" departPos="5.10" departSpeed="10.00" departDelay="0.29" arrival="172.00" arrivalLane="D4top3_2" arrivalPos="286.40" arrivalSpeed="13.49" duration="138.00" routeLength="1492.21" waitingTime="10.00" waitingCount="1" stopTime="0.00" timeLoss="29.63" rerouteNo="0" devices="tripinfo_OD322_NV.0" vType="NV" speedFactor="1.00" vaporized=""/>
    <tripinfo id="OD368_NV.1" depart="101.00" departLane="right1E1_0" departPos="5.10" departSpeed="10.00" departDelay="0.86" arrival="172.00" arrivalLane="E2right2_0" arrivalPos="286.40" arrivalSpeed="12.78" duration="71.00" routeLength="858.56" waitingTime="0.00" waitingCount="0" stopTime="0.00" timeLoss="6.96" rerouteNo="0" devices="tripinfo_OD368_NV.1" vType="NV" speedFactor="1.00" vaporized=""/>
    <tripinfo id="OD310_NV.4" depart="101.00" departLane="left4A4_0" departPos="5.10" departSpeed="10.00" departDelay="0.28" arrival="172.00" arrivalLane="A3left3_0" arrivalPos="286.40" arrivalSpeed="13.13" duration="71.00" routeLength="858.56" waitingTime="0.00" waitingCount="0" stopTime="0.00" timeLoss="7.76" rerouteNo="0" devices="tripinfo_OD310_NV.4" vType="NV" speedFactor="1.00" vaporized=""/>
    <tripinfo id="OD199_NV.0" depart="16.00" departLane="bottom1B0_0" departPos="5.10" departSpeed="10.00" departDelay="3.02" arrival="173.00" arrivalLane="E0bottom4_0" arrivalPos="286.40" arrivalSpeed="12.66" duration="157.00" routeLength="1458.56" waitingTime="26.00" waitingCount="2" stopTime="0.00" timeLoss="50.51" rerouteNo="0" devices="tripinfo_OD199_NV.0" vType="NV" speedFactor="1.00" vaporized=""/>
    <tripinfo id="OD169_NV.1" depart="46.00" departLane="left2A2_0" departPos="5.10" departSpeed="10.00" departDelay="0.47" arrival="173.00" arrivalLane="A0bottom0_1" arrivalPos="286.40" arrivalSpeed="12.81" duration="127.00" routeLength="1176.73" waitingTime="23.00" waitingCount="1" stopTime="0.00" timeLoss="41.47" rerouteNo="0" devices="tripinfo_OD169_NV.1" vType="NV" speedFactor="1.00" vaporized=""/>
    <tripinfo id="OD113_NV.0" depart="35.00" departLane="right4E4_0" departPos="5.10" departSpeed="10.00" departDelay="0.56" arrival="174.00" arrivalLane="D4top3_0" arrivalPos="286.40" arrivalSpeed="12.80" duration="139.00" routeLength="876.73" waitingTime="64.00" waitingCount="1" stopTime="0.00" timeLoss="74.88" rerouteNo="0" devices="tripinfo_OD113_NV.0" vType="NV" speedFactor="1.00" vaporized=""/>
    <tripinfo id="OD158_RV.0" depart="83.00" departLane="left2A2_0" departPos="5.10" departSpeed="10.00" departDelay="2.78" arrival="174.00" arrivalLane="A3left3_2" arrivalPos="286.40" arrivalSpeed="12.71" duration="91.00" routeLength="889.52" waitingTime="14.00" waitingCount="1" stopTime="0.00" timeLoss="25.83" rerouteNo="0" devices="tripinfo_OD158_RV.0" vType="RV" speedFactor="1.00" vaporized=""/>
    <tripinfo id="OD349_NV.0" depart="4.00" departLane="bottom2C0_0" departPos="5.10" departSpeed="10.00" departDelay="1.63" arrival="175.00" arrivalLane="E2right2_0" arrivalPos="286.40" arrivalSpeed="13.89" duration="171.00" routeLength="1755.87" waitingTime="26.00" waitingCount="1" stopTime="0.00" timeLoss="42.28" rerouteNo="0" devices="tripinfo_OD349_NV.0" vType="NV" speedFactor="1.00" vaporized=""/>
    <tripinfo id="OD131_NV.0" depart="80.00" departLane="left1A1_0" departPos="5.10" departSpeed="10.00" departDelay="0.33" arrival="175.00" arrivalLane="A0bottom0_1" arrivalPos="286.40" arrivalSpeed="12.59" duration="95.00" routeLength="876.73" waitingTime="20.00" waitingCount="1" stopTime="0.00" timeLoss="30.94" rerouteNo="0" devices="tripinfo_OD131_NV.0" vType="NV" speedFactor="1.00" vaporized=""/>
    <tripinfo id="OD76_NV.1" depart="104.00" departLane="right0E0_0" departPos="5.10" departSpeed="10.00" departDelay="0.91" arrival="175.00" arrivalLane="E1right1_0" arrivalPos="286.40" arrivalSpeed="13.63" duration="71.00" routeLength="858.56" waitingTime="0.00" waitingCount="0" stopTime="0.00" timeLoss="6.81" rerouteNo="0" devices="tripinfo_OD76_NV.1" vType="NV" speedFactor="1.00" vaporized=""/>
    <tripinfo id="OD194_NV.0" depart="83.00" departLane="bottom1B0_0" departPos="5.10" departSpeed="10.00" departDelay="1.99" arrival="176.00" arrivalLane="D0bottom3_0" arrivalPos="286.40" arrivalSpeed="12.74" duration="93.00" routeLength="1158.56" waitingTime="0.00" waitingCount="0" stopTime="0.00" timeLoss="8.57" rerouteNo="0" devices="tripinfo_OD194_NV.0" vType="NV" speedFactor="1.00" vaporized=""/>
    <tripinfo id="OD158_NV.2" depart="87.00" departLane="left2A2_0" departPos="5.10" departSpeed="10.00" departDelay="0.34" arrival="176.00" arrivalLane="A3left3_2" arrivalPos="286.40" arrivalSpeed="12.44" duration="89.00" routeLength="889.52" waitingTime="11.00" waitingCount="1" stopTime="0.00" timeLoss="23.98" rerouteNo="0" devices="tripinfo_OD158_NV.2" vType="NV" speedFactor="1.00" vaporized=""/>
    <tripinfo id="OD192_NV.0" depart="106.00" departLane="bottom1B0_0" departPos="5.10" departSpeed="10.00" departDelay="0.31" arrival="177.00" arrivalLane="C0bottom2_0" arrivalPos="286.40" arrivalSpeed="12.75" duration="71.00" routeLength="858.56" waitingTime="0.00" waitingCount="0" stopTime="0.00" timeLoss="6.63" rerouteNo="0" devices="tripinfo_OD192_NV.0" vType="NV" speedFactor="1.00" vaporized=""/>
    <tripinfo id="OD84_NV.0" depart="130.00" departLane="right0E0_0" departPos="5.10" departSpeed="10.00" departDelay="0.30" arrival="177.00" arrivalLane="E0bottom4_2" arrivalPos="286.40" arrivalSpeed="13.06" duration="47.00" routeLength="592.21" waitingTime="0.00" waitingCount="0" stopTime="0.00" timeLoss="2.97" rerouteNo="0" devices="tripinfo_OD84_NV.0" vType="NV" speedFactor="1.00" vaporized=""/>
    <tripinfo id="OD161_NV.0" depart="108.00" departLane="left2A2_0" departPos="5.10" departSpeed="10.00" departDelay="0.85" arrival="179.00" arrivalLane="A1left1_0" arrivalPos="286.40" arrivalSpeed="13.82" duration="71.00" routeLength="858.56" waitingTime="0.00" waitingCount="0" stopTime="0.00" timeLoss="7.50" rerouteNo="0" devices="tripinfo_OD161_NV.0" vType="NV" speedFactor="1.00" vaporized=""/>