<?xml version="1.0" encoding="UTF-8"?>

<!-- generated on 2025-02-16 23:17:40 by Eclipse SUMO sumo Version 1.20.0
<configuration xmlns:xsi="http://www.w3.org/2001/XMLSchema-instance" xsi:noNamespaceSchemaLocation="http://sumo.dlr.de/xsd/sumoConfiguration.xsd">

    <input>
        <net-file value="./envs/5x5/5x5.net.xml"/>
        <route-files value="./envs/5x5/Demand_20.rou.xml"/>
    </input>

    <output>
        <tripinfo-output value="./online_train/5x5\online_train_SACTF-mask-onlySV_multi_agents/tripinfo/tripinfo_ep173.xml"/>
    </output>

    <time>
        <begin value="0"/>
    </time>

    <processing>
        <time-to-teleport value="-1"/>
        <waiting-time-memory value="1800"/>
    </processing>

    <report>
        <no-step-log value="true"/>
    </report>

    <traci_server>
        <remote-port value="51725"/>
    </traci_server>

</configuration>
-->

<tripinfos xmlns:xsi="http://www.w3.org/2001/XMLSchema-instance" xsi:noNamespaceSchemaLocation="http://sumo.dlr.de/xsd/tripinfo_file.xsd">
    <tripinfo id="OD310_NV.0" depart="4.00" departLane="left4A4_0" departPos="5.10" departSpeed="10.00" departDelay="1.48" arrival="75.00" arrivalLane="A3left3_0" arrivalPos="286.40" arrivalSpeed="13.89" duration="71.00" routeLength="858.56" waitingTime="0.00" waitingCount="0" stopTime="0.00" timeLoss="7.13" rerouteNo="0" devices="tripinfo_OD310_NV.0" vType="NV" speedFactor="1.00" vaporized=""/>
    <tripinfo id="OD310_NV.1" depart="8.00" departLane="left4A4_0" departPos="5.10" departSpeed="10.00" departDelay="3.20" arrival="79.00" arrivalLane="A3left3_0" arrivalPos="286.40" arrivalSpeed="13.40" duration="71.00" routeLength="858.56" waitingTime="0.00" waitingCount="0" stopTime="0.00" timeLoss="7.10" rerouteNo="0" devices="tripinfo_OD310_NV.1" vType="NV" speedFactor="1.00" vaporized=""/>
    <tripinfo id="OD38_NV.0" depart="8.00" departLane="right2E2_0" departPos="5.10" departSpeed="10.00" departDelay="1.45" arrival="79.00" arrivalLane="E1right1_2" arrivalPos="286.40" arrivalSpeed="13.08" duration="71.00" routeLength="889.52" waitingTime="0.00" waitingCount="0" stopTime="0.00" timeLoss="4.68" rerouteNo="0" devices="tripinfo_OD38_NV.0" vType="NV" speedFactor="1.00" vaporized=""/>
    <tripinfo id="OD102_NV.0" depart="37.00" departLane="right4E4_0" departPos="5.10" departSpeed="10.00" departDelay="0.87" arrival="84.00" arrivalLane="E4top4_0" arrivalPos="286.40" arrivalSpeed="13.17" duration="47.00" routeLength="576.73" waitingTime="0.00" waitingCount="0" stopTime="0.00" timeLoss="4.27" rerouteNo="0" devices="tripinfo_OD102_NV.0" vType="NV" speedFactor="1.00" vaporized=""/>
    <tripinfo id="OD129_NV.0" depart="19.00" departLane="left1A1_0" departPos="5.10" departSpeed="10.00" departDelay="0.11" arrival="89.00" arrivalLane="A0left0_0" arrivalPos="286.40" arrivalSpeed="13.80" duration="70.00" routeLength="858.56" waitingTime="0.00" waitingCount="0" stopTime="0.00" timeLoss="7.12" rerouteNo="0" devices="tripinfo_OD129_NV.0" vType="NV" speedFactor="1.00" vaporized=""/>
    <tripinfo id="OD284_NV.0" depart="22.00" departLane="top4E4_0" departPos="5.10" departSpeed="10.00" departDelay="1.14" arrival="93.00" arrivalLane="D4top3_0" arrivalPos="286.40" arrivalSpeed="12.83" duration="71.00" routeLength="858.56" waitingTime="0.00" waitingCount="0" stopTime="0.00" timeLoss="7.59" rerouteNo="0" devices="tripinfo_OD284_NV.0" vType="NV" speedFactor="1.00" vaporized=""/>
    <tripinfo id="OD353_RV.0" depart="6.00" departLane="bottom2C0_0" departPos="5.10" departSpeed="10.00" departDelay="3.40" arrival="99.00" arrivalLane="E0right0_1" arrivalPos="286.40" arrivalSpeed="12.53" duration="93.00" routeLength="1176.73" waitingTime="0.00" waitingCount="0" stopTime="0.00" timeLoss="7.31" rerouteNo="0" devices="tripinfo_OD353_RV.0" vType="RV" speedFactor="1.00" vaporized=""/>
    <tripinfo id="OD291_NV.0" depart="3.00" departLane="top1B4_0" departPos="5.10" departSpeed="10.00" departDelay="0.51" arrival="101.00" arrivalLane="A3left3_1" arrivalPos="286.40" arrivalSpeed="13.39" duration="98.00" routeLength="1176.73" waitingTime="1.00" waitingCount="1" stopTime="0.00" timeLoss="12.35" rerouteNo="0" devices="tripinfo_OD291_NV.0" vType="NV" speedFactor="1.00" vaporized=""/>
    <tripinfo id="OD129_RV.0" depart="32.00" departLane="left1A1_0" departPos="5.10" departSpeed="10.00" departDelay="0.10" arrival="102.00" arrivalLane="A0left0_0" arrivalPos="286.40" arrivalSpeed="13.35" duration="70.00" routeLength="858.56" waitingTime="0.00" waitingCount="0" stopTime="0.00" timeLoss="6.71" rerouteNo="0" devices="tripinfo_OD129_RV.0" vType="RV" speedFactor="1.00" vaporized=""/>
    <tripinfo id="OD45_NV.0" depart="6.00" departLane="right2E2_0" departPos="5.10" departSpeed="10.00" departDelay="0.70" arrival="104.00" arrivalLane="E4top4_1" arrivalPos="286.40" arrivalSpeed="13.40" duration="98.00" routeLength="1176.73" waitingTime="1.00" waitingCount="1" stopTime="0.00" timeLoss="12.61" rerouteNo="0" devices="tripinfo_OD45_NV.0" vType="NV" speedFactor="1.00" vaporized=""/>
    <tripinfo id="OD169_RV.0" depart="7.00" departLane="left2A2_0" departPos="5.10" departSpeed="10.00" departDelay="0.60" arrival="106.00" arrivalLane="A0bottom0_1" arrivalPos="286.40" arrivalSpeed="12.98" duration="99.00" routeLength="1176.73" waitingTime="2.00" waitingCount="1" stopTime="0.00" timeLoss="13.38" rerouteNo="0" devices="tripinfo_OD169_RV.0" vType="RV" speedFactor="1.00" vaporized=""/>
    <tripinfo id="OD257_RV.0" depart="12.00" departLane="left3A3_0" departPos="5.10" departSpeed="10.00" departDelay="1.82" arrival="106.00" arrivalLane="A1left1_0" arrivalPos="286.40" arrivalSpeed="13.10" duration="94.00" routeLength="1158.56" waitingTime="0.00" waitingCount="0" stopTime="0.00" timeLoss="8.70" rerouteNo="0" devices="tripinfo_OD257_RV.0" vType="RV" speedFactor="1.00" vaporized=""/>
    <tripinfo id="OD310_NV.2" depart="38.00" departLane="left4A4_0" departPos="5.10" departSpeed="10.00" departDelay="0.76" arrival="109.00" arrivalLane="A3left3_0" arrivalPos="286.40" arrivalSpeed="13.76" duration="71.00" routeLength="858.56" waitingTime="0.00" waitingCount="0" stopTime="0.00" timeLoss="7.02" rerouteNo="0" devices="tripinfo_OD310_NV.2" vType="NV" speedFactor="1.00" vaporized=""/>
    <tripinfo id="OD354_NV.0" depart="10.00" departLane="bottom2C0_0" departPos="5.10" departSpeed="10.00" departDelay="0.22" arrival="111.00" arrivalLane="B0bottom1_2" arrivalPos="286.40" arrivalSpeed="12.48" duration="101.00" routeLength="889.52" waitingTime="23.00" waitingCount="1" stopTime="0.00" timeLoss="35.22" rerouteNo="0" devices="tripinfo_OD354_NV.0" vType="NV" speedFactor="1.00" vaporized=""/>
    <tripinfo id="OD176_NV.0" depart="40.00" departLane="top3D4_0" departPos="5.10" departSpeed="10.00" departDelay="0.16" arrival="111.00" arrivalLane="C4top2_0" arrivalPos="286.40" arrivalSpeed="12.47" duration="71.00" routeLength="858.56" waitingTime="0.00" waitingCount="0" stopTime="0.00" timeLoss="7.39" rerouteNo="0" devices="tripinfo_OD176_NV.0" vType="NV" speedFactor="1.00" vaporized=""/>
    <tripinfo id="OD21_RV.0" depart="16.00" departLane="top2C4_0" departPos="5.10" departSpeed="10.00" departDelay="0.63" arrival="116.00" arrivalLane="A4left4_1" arrivalPos="286.40" arrivalSpeed="13.80" duration="100.00" routeLength="1176.73" waitingTime="2.00" waitingCount="1" stopTime="0.00" timeLoss="14.25" rerouteNo="0" devices="tripinfo_OD21_RV.0" vType="RV" speedFactor="1.00" vaporized=""/>
    <tripinfo id="OD374_NV.0" depart="12.00" departLane="right1E1_0" departPos="5.10" departSpeed="10.00" departDelay="2.10" arrival="117.00" arrivalLane="E3right3_0" arrivalPos="286.40" arrivalSpeed="13.44" duration="105.00" routeLength="1158.56" waitingTime="6.00" waitingCount="1" stopTime="0.00" timeLoss="20.10" rerouteNo="0" devices="tripinfo_OD374_NV.0" vType="NV" speedFactor="1.00" vaporized=""/>
    <tripinfo id="OD65_RV.0" depart="49.00" departLane="bottom3D0_0" departPos="5.10" departSpeed="10.00" departDelay="2.05" arrival="119.00" arrivalLane="E0bottom4_0" arrivalPos="286.40" arrivalSpeed="13.88" duration="70.00" routeLength="858.56" waitingTime="0.00" waitingCount="0" stopTime="0.00" timeLoss="6.44" rerouteNo="0" devices="tripinfo_OD65_RV.0" vType="RV" speedFactor="1.00" vaporized=""/>
    <tripinfo id="OD50_NV.0" depart="49.00" departLane="right2E2_0" departPos="5.10" departSpeed="10.00" departDelay="0.93" arrival="120.00" arrivalLane="E3right3_0" arrivalPos="286.40" arrivalSpeed="12.96" duration="71.00" routeLength="858.56" waitingTime="0.00" waitingCount="0" stopTime="0.00" timeLoss="7.39" rerouteNo="0" devices="tripinfo_OD50_NV.0" vType="NV" speedFactor="1.00" vaporized=""/>
    <tripinfo id="OD184_NV.0" depart="25.00" departLane="top3D4_0" departPos="5.10" departSpeed="10.00" departDelay="5.03" arrival="121.00" arrivalLane="B4top1_0" arrivalPos="286.40" arrivalSpeed="13.64" duration="96.00" routeLength="1158.56" waitingTime="0.00" waitingCount="0" stopTime="0.00" timeLoss="10.31" rerouteNo="0" devices="tripinfo_OD184_NV.0" vType="NV" speedFactor="1.00" vaporized=""/>
    <tripinfo id="OD184_RV.0" depart="29.00" departLane="top3D4_0" departPos="5.10" departSpeed="10.00" departDelay="1.79" arrival="125.00" arrivalLane="B4top1_0" arrivalPos="286.40" arrivalSpeed="12.49" duration="96.00" routeLength="1158.56" waitingTime="0.00" waitingCount="0" stopTime="0.00" timeLoss="10.52" rerouteNo="0" devices="tripinfo_OD184_RV.0" vType="RV" speedFactor="1.00" vaporized=""/>
    <tripinfo id="OD65_NV.0" depart="54.00" departLane="bottom3D0_0" departPos="5.10" departSpeed="10.00" departDelay="0.88" arrival="125.00" arrivalLane="E0bottom4_0" arrivalPos="286.40" arrivalSpeed="13.24" duration="71.00" routeLength="858.56" waitingTime="0.00" waitingCount="0" stopTime="0.00" timeLoss="7.87" rerouteNo="0" devices="tripinfo_OD65_NV.0" vType="NV" speedFactor="1.00" vaporized=""/>
    <tripinfo id="OD284_NV.1" depart="54.00" departLane="top4E4_0" departPos="5.10" departSpeed="10.00" departDelay="0.77" arrival="125.00" arrivalLane="D4top3_0" arrivalPos="286.40" arrivalSpeed="13.60" duration="71.00" routeLength="858.56" waitingTime="0.00" waitingCount="0" stopTime="0.00" timeLoss="7.79" rerouteNo="0" devices="tripinfo_OD284_NV.1" vType="NV" speedFactor="1.00" vaporized=""/>
    <tripinfo id="OD257_NV.0" depart="38.00" departLane="left3A3_0" departPos="5.10" departSpeed="10.00" departDelay="0.13" arrival="131.00" arrivalLane="A1left1_0" arrivalPos="286.40" arrivalSpeed="13.27" duration="93.00" routeLength="1158.56" waitingTime="0.00" waitingCount="0" stopTime="0.00" timeLoss="8.02" rerouteNo="0" devices="tripinfo_OD257_NV.0" vType="NV" speedFactor="1.00" vaporized=""/>
    <tripinfo id="OD169_NV.0" depart="17.00" departLane="left2A2_0" departPos="5.10" departSpeed="10.00" departDelay="0.59" arrival="132.00" arrivalLane="A0bottom0_1" arrivalPos="286.40" arrivalSpeed="12.89" duration="115.00" routeLength="1176.73" waitingTime="11.00" waitingCount="2" stopTime="0.00" timeLoss="29.01" rerouteNo="0" devices="tripinfo_OD169_NV.0" vType="NV" speedFactor="1.00" vaporized=""/>
    <tripinfo id="OD50_NV.1" depart="60.00" departLane="right2E2_0" departPos="5.10" departSpeed="10.00" departDelay="0.59" arrival="133.00" arrivalLane="E3right3_0" arrivalPos="286.40" arrivalSpeed="13.16" duration="73.00" routeLength="858.56" waitingTime="0.00" waitingCount="0" stopTime="0.00" timeLoss="8.67" rerouteNo="0" devices="tripinfo_OD50_NV.1" vType="NV" speedFactor="1.00" vaporized=""/>
    <tripinfo id="OD264_NV.0" depart="6.00" departLane="left3A3_0" departPos="5.10" departSpeed="10.00" departDelay="0.30" arrival="134.00" arrivalLane="A0bottom0_1" arrivalPos="286.40" arrivalSpeed="12.62" duration="128.00" routeLength="1476.73" waitingTime="3.00" waitingCount="1" stopTime="0.00" timeLoss="20.58" rerouteNo="0" devices="tripinfo_OD264_NV.0" vType="NV" speedFactor="1.00" vaporized=""/>
    <tripinfo id="OD76_NV.0" depart="65.00" departLane="right0E0_0" departPos="5.10" departSpeed="10.00" departDelay="0.41" arrival="136.00" arrivalLane="E1right1_0" arrivalPos="286.40" arrivalSpeed="13.71" duration="71.00" routeLength="858.56" waitingTime="0.00" waitingCount="0" stopTime="0.00" timeLoss="7.68" rerouteNo="0" devices="tripinfo_OD76_NV.0" vType="NV" speedFactor="1.00" vaporized=""/>
    <tripinfo id="OD68_RV.0" depart="20.00" departLane="bottom3D0_0" departPos="5.10" departSpeed="10.00" departDelay="0.38" arrival="138.00" arrivalLane="B0bottom1_2" arrivalPos="286.40" arrivalSpeed="12.90" duration="118.00" routeLength="1189.52" waitingTime="15.00" waitingCount="1" stopTime="0.00" timeLoss="31.04" rerouteNo="0" devices="tripinfo_OD68_RV.0" vType="RV" speedFactor="1.00" vaporized=""/>
    <tripinfo id="OD107_RV.0" depart="52.00" departLane="right4E4_0" departPos="5.10" departSpeed="10.00" departDelay="0.99" arrival="141.00" arrivalLane="E3right3_2" arrivalPos="286.40" arrivalSpeed="13.01" duration="89.00" routeLength="889.52" waitingTime="14.00" waitingCount="1" stopTime="0.00" timeLoss="23.00" rerouteNo="0" devices="tripinfo_OD107_RV.0" vType="RV" speedFactor="1.00" vaporized=""/>
    <tripinfo id="OD288_RV.0" depart="59.00" departLane="top1B4_0" departPos="5.10" departSpeed="10.00" departDelay="1.65" arrival="142.00" arrivalLane="A4left4_1" arrivalPos="286.40" arrivalSpeed="13.04" duration="83.00" routeLength="876.73" waitingTime="7.00" waitingCount="1" stopTime="0.00" timeLoss="18.74" rerouteNo="0" devices="tripinfo_OD288_RV.0" vType="RV" speedFactor="1.00" vaporized=""/>
    <tripinfo id="OD50_NV.2" depart="71.00" departLane="right2E2_0" departPos="5.10" departSpeed="10.00" departDelay="0.74" arrival="142.00" arrivalLane="E3right3_0" arrivalPos="286.40" arrivalSpeed="13.19" duration="71.00" routeLength="858.56" waitingTime="0.00" waitingCount="0" stopTime="0.00" timeLoss="7.67" rerouteNo="0" devices="tripinfo_OD50_NV.2" vType="NV" speedFactor="1.00" vaporized=""/>
    <tripinfo id="OD149_NV.0" depart="7.00" departLane="left0A0_0" departPos="5.10" departSpeed="10.00" departDelay="0.02" arrival="144.00" arrivalLane="A2left2_2" arrivalPos="286.40" arrivalSpeed="13.71" duration="137.00" routeLength="1189.52" waitingTime="41.00" waitingCount="1" stopTime="0.00" timeLoss="49.62" rerouteNo="0" devices="tripinfo_OD149_NV.0" vType="NV" speedFactor="1.00" vaporized=""/>
    <tripinfo id="OD21_RV.1" depart="36.00" departLane="top2C4_0" departPos="5.10" departSpeed="10.00" departDelay="0.64" arrival="145.00" arrivalLane="A4left4_1" arrivalPos="286.40" arrivalSpeed="13.23" duration="109.00" routeLength="1176.73" waitingTime="12.00" waitingCount="1" stopTime="0.00" timeLoss="23.58" rerouteNo="0" devices="tripinfo_OD21_RV.1" vType="RV" speedFactor="1.00" vaporized=""/>
    <tripinfo id="OD369_NV.0" depart="5.00" departLane="right1E1_0" departPos="5.10" departSpeed="10.00" departDelay="2.04" arrival="146.00" arrivalLane="E4top4_1" arrivalPos="286.40" arrivalSpeed="13.41" duration="141.00" routeLength="1476.73" waitingTime="20.00" waitingCount="1" stopTime="0.00" timeLoss="33.33" rerouteNo="0" devices="tripinfo_OD369_NV.0" vType="NV" speedFactor="1.00" vaporized=""/>
    <tripinfo id="OD149_NV.1" depart="40.00" departLane="left0A0_0" departPos="5.10" departSpeed="10.00" departDelay="0.33" arrival="146.00" arrivalLane="A2left2_2" arrivalPos="286.40" arrivalSpeed="13.17" duration="106.00" routeLength="1189.52" waitingTime="8.00" waitingCount="1" stopTime="0.00" timeLoss="18.51" rerouteNo="0" devices="tripinfo_OD149_NV.1" vType="NV" speedFactor="1.00" vaporized=""/>
    <tripinfo id="OD176_NV.1" depart="76.00" departLane="top3D4_0" departPos="5.10" departSpeed="10.00" departDelay="1.17" arrival="146.00" arrivalLane="C4top2_0" arrivalPos="286.40" arrivalSpeed="13.23" duration="70.00" routeLength="858.56" waitingTime="0.00" waitingCount="0" stopTime="0.00" timeLoss="6.53" rerouteNo="0" devices="tripinfo_OD176_NV.1" vType="NV" speedFactor="1.00" vaporized=""/>
    <tripinfo id="OD252_RV.0" depart="10.00" departLane="left3A3_0" departPos="5.10" departSpeed="10.00" departDelay="0.17" arrival="147.00" arrivalLane="C4top2_1" arrivalPos="286.40" arrivalSpeed="13.29" duration="137.00" routeLength="1492.21" waitingTime="16.00" waitingCount="1" stopTime="0.00" timeLoss="29.06" rerouteNo="0" devices="tripinfo_OD252_RV.0" vType="RV" speedFactor="1.00" vaporized=""/>
    <tripinfo id="OD199_NV.0" depart="16.00" departLane="bottom1B0_0" departPos="5.10" departSpeed="10.00" departDelay="3.02" arrival="147.00" arrivalLane="E0bottom4_0" arrivalPos="286.40" arrivalSpeed="13.68" duration="131.00" routeLength="1458.56" waitingTime="3.00" waitingCount="1" stopTime="0.00" timeLoss="24.25" rerouteNo="0" devices="tripinfo_OD199_NV.0" vType="NV" speedFactor="1.00" vaporized=""/>
    <tripinfo id="OD174_NV.0" depart="19.00" departLane="top3D4_0" departPos="5.10" departSpeed="10.00" departDelay="0.66" arrival="147.00" arrivalLane="A4left4_1" arrivalPos="286.40" arrivalSpeed="13.65" duration="128.00" routeLength="1476.73" waitingTime="4.00" waitingCount="2" stopTime="0.00" timeLoss="21.14" rerouteNo="0" devices="tripinfo_OD174_NV.0" vType="NV" speedFactor="1.00" vaporized=""/>
    <tripinfo id="OD189_RV.0" depart="8.00" departLane="top3D4_0" departPos="5.10" departSpeed="10.00" departDelay="0.02" arrival="148.00" arrivalLane="D4top3_1" arrivalPos="286.40" arrivalSpeed="13.28" duration="140.00" routeLength="1737.70" waitingTime="0.00" waitingCount="0" stopTime="0.00" timeLoss="11.84" rerouteNo="0" devices="tripinfo_OD189_RV.0" vType="RV" speedFactor="1.00" vaporized=""/>
    <tripinfo id="OD7_NV.0" depart="77.00" departLane="right3E3_0" departPos="5.10" departSpeed="10.00" departDelay="0.10" arrival="148.00" arrivalLane="E4top4_1" arrivalPos="286.40" arrivalSpeed="12.49" duration="71.00" routeLength="876.73" waitingTime="0.00" waitingCount="0" stopTime="0.00" timeLoss="6.79" rerouteNo="0" devices="tripinfo_OD7_NV.0" vType="NV" speedFactor="1.00" vaporized=""/>
    <tripinfo id="OD368_NV.0" depart="78.00" departLane="right1E1_0" departPos="5.10" departSpeed="10.00" departDelay="0.11" arrival="149.00" arrivalLane="E2right2_0" arrivalPos="286.40" arrivalSpeed="13.18" duration="71.00" routeLength="858.56" waitingTime="0.00" waitingCount="0" stopTime="0.00" timeLoss="7.33" rerouteNo="0" devices="tripinfo_OD368_NV.0" vType="NV" speedFactor="1.00" vaporized=""/>
    <tripinfo id="OD174_NV.1" depart="23.00" departLane="top3D4_0" departPos="5.10" departSpeed="10.00" departDelay="3.67" arrival="150.00" arrivalLane="A4left4_1" arrivalPos="286.40" arrivalSpeed="12.61" duration="127.00" routeLength="1476.73" waitingTime="1.00" waitingCount="1" stopTime="0.00" timeLoss="19.45" rerouteNo="0" devices="tripinfo_OD174_NV.1" vType="NV" speedFactor="1.00" vaporized=""/>
    <tripinfo id="OD369_NV.1" depart="26.00" departLane="right1E1_0" departPos="5.10" departSpeed="10.00" departDelay="0.50" arrival="150.00" arrivalLane="E4top4_1" arrivalPos="286.40" arrivalSpeed="13.62" duration="124.00" routeLength="1476.73" waitingTime="0.00" waitingCount="0" stopTime="0.00" timeLoss="16.24" rerouteNo="0" devices="tripinfo_OD369_NV.1" vType="NV" speedFactor="1.00" vaporized=""/>
    <tripinfo id="OD18_NV.0" depart="11.00" departLane="right3E3_0" departPos="5.10" departSpeed="10.00" departDelay="0.23" arrival="152.00" arrivalLane="D4top3_0" arrivalPos="286.40" arrivalSpeed="13.35" duration="141.00" routeLength="1155.87" waitingTime="44.00" waitingCount="1" stopTime="0.00" timeLoss="55.76" rerouteNo="0" devices="tripinfo_OD18_NV.0" vType="NV" speedFactor="1.00" vaporized=""/>
    <tripinfo id="OD52_NV.0" depart="59.00" departLane="right2E2_0" departPos="5.10" departSpeed="10.00" departDelay="0.01" arrival="152.00" arrivalLane="E4right4_0" arrivalPos="286.40" arrivalSpeed="13.84" duration="93.00" routeLength="1158.56" waitingTime="0.00" waitingCount="0" stopTime="0.00" timeLoss="7.61" rerouteNo="0" devices="tripinfo_OD52_NV.0" vType="NV" speedFactor="1.00" vaporized=""/>
    <tripinfo id="OD135_NV.0" depart="51.00" departLane="left0A0_0" departPos="5.10" departSpeed="10.00" departDelay="0.64" arrival="153.00" arrivalLane="C0bottom2_0" arrivalPos="286.40" arrivalSpeed="12.96" duration="102.00" routeLength="1176.73" waitingTime="0.00" waitingCount="0" stopTime="0.00" timeLoss="16.20" rerouteNo="0" devices="tripinfo_OD135_NV.0" vType="NV" speedFactor="1.00" vaporized=""/>
    <tripinfo id="OD310_NV.3" depart="82.00" departLane="left4A4_0" departPos="5.10" departSpeed="10.00" departDelay="0.90" arrival="153.00" arrivalLane="A3left3_0" arrivalPos="286.40" arrivalSpeed="12.92" duration="71.00" routeLength="858.56" waitingTime="0.00" waitingCount="0" stopTime="0.00" timeLoss="6.85" rerouteNo="0" devices="tripinfo_OD310_NV.3" vType="NV" speedFactor="1.00" vaporized=""/>
    <tripinfo id="OD131_NV.0" depart="80.00" departLane="left1A1_0" departPos="5.10" departSpeed="10.00" departDelay="0.33" arrival="159.00" arrivalLane="A0bottom0_1" arrivalPos="286.40" arrivalSpeed="12.76" duration="79.00" routeLength="876.73" waitingTime="1.00" waitingCount="1" stopTime="0.00" timeLoss="14.54" rerouteNo="0" devices="tripinfo_OD131_NV.0" vType="NV" speedFactor="1.00" vaporized=""/>
    <tripinfo id="OD169_NV.1" depart="46.00" departLane="left2A2_0" departPos="5.10" departSpeed="10.00" departDelay="0.47" arrival="160.00" arrivalLane="A0bottom0_1" arrivalPos="286.40" arrivalSpeed="13.33" duration="114.00" routeLength="1176.73" waitingTime="12.00" waitingCount="2" stopTime="0.00" timeLoss="28.59" rerouteNo="0" devices="tripinfo_OD169_NV.1" vType="NV" speedFactor="1.00" vaporized=""/>
    <tripinfo id="OD14_NV.0" depart="90.00" departLane="right3E3_0" departPos="5.10" departSpeed="10.00" departDelay="0.85" arrival="161.00" arrivalLane="E4right4_0" arrivalPos="286.40" arrivalSpeed="12.80" duration="71.00" routeLength="858.56" waitingTime="0.00" waitingCount="0" stopTime="0.00" timeLoss="7.86" rerouteNo="0" devices="tripinfo_OD14_NV.0" vType="NV" speedFactor="1.00" vaporized=""/>
    <tripinfo id="OD142_NV.0" depart="31.00" departLane="left0A0_0" departPos="5.10" departSpeed="10.00" departDelay="0.33" arrival="162.00" arrivalLane="A1left1_2" arrivalPos="286.40" arrivalSpeed="12.73" duration="131.00" routeLength="889.52" waitingTime="51.00" waitingCount="1" stopTime="0.00" timeLoss="65.09" rerouteNo="0" devices="tripinfo_OD142_NV.0" vType="NV" speedFactor="1.00" vaporized=""/>
    <tripinfo id="OD333_NV.0" depart="74.00" departLane="bottom0A0_0" departPos="5.10" departSpeed="10.00" departDelay="1.16" arrival="164.00" arrivalLane="A1left1_2" arrivalPos="286.40" arrivalSpeed="13.30" duration="90.00" routeLength="892.21" waitingTime="9.00" waitingCount="1" stopTime="0.00" timeLoss="24.48" rerouteNo="0" devices="tripinfo_OD333_NV.0" vType="NV" speedFactor="1.00" vaporized=""/>
    <tripinfo id="OD365_NV.0" depart="7.00" departLane="right1E1_0" departPos="5.10" departSpeed="10.00" departDelay="0.05" arrival="165.00" arrivalLane="D0bottom3_1" arrivalPos="286.40" arrivalSpeed="13.07" duration="158.00" routeLength="1192.21" waitingTime="49.00" waitingCount="3" stopTime="0.00" timeLoss="71.21" rerouteNo="0" devices="tripinfo_OD365_NV.0" vType="NV" speedFactor="1.00" vaporized=""/>
    <tripinfo id="OD374_NV.1" depart="60.00" departLane="right1E1_0" departPos="5.10" departSpeed="10.00" departDelay="0.36" arrival="169.00" arrivalLane="E3right3_0" arrivalPos="286.40" arrivalSpeed="13.59" duration="109.00" routeLength="1158.56" waitingTime="8.00" waitingCount="1" stopTime="0.00" timeLoss="23.75" rerouteNo="0" devices="tripinfo_OD374_NV.1" vType="NV" speedFactor="1.00" vaporized=""/>
    <tripinfo id="OD266_NV.0" depart="18.00" departLane="top4E4_0" departPos="5.10" departSpeed="10.00" departDelay="0.22" arrival="171.00" arrivalLane="E1right1_2" arrivalPos="286.40" arrivalSpeed="13.57" duration="153.00" routeLength="1492.21" waitingTime="26.00" waitingCount="2" stopTime="0.00" timeLoss="44.45" rerouteNo="0" devices="tripinfo_OD266_NV.0" vType="NV" speedFactor="1.00" vaporized=""/>
    <tripinfo id="OD368_NV.1" depart="101.00" departLane="right1E1_0" departPos="5.10" departSpeed="10.00" departDelay="0.86" arrival="172.00" arrivalLane="E2right2_0" arrivalPos="286.40" arrivalSpeed="12.63" duration="71.00" routeLength="858.56" waitingTime="0.00" waitingCount="0" stopTime="0.00" timeLoss="7.57" rerouteNo="0" devices="tripinfo_OD368_NV.1" vType="NV" speedFactor="1.00" vaporized=""/>
    <tripinfo id="OD310_NV.4" depart="101.00" departLane="left4A4_0" departPos="5.10" departSpeed="10.00" departDelay="0.28" arrival="172.00" arrivalLane="A3left3_0" arrivalPos="286.40" arrivalSpeed="13.28" duration="71.00" routeLength="858.56" waitingTime="0.00" waitingCount="0" stopTime="0.00" timeLoss="6.93" rerouteNo="0" devices="tripinfo_OD310_NV.4" vType="NV" speedFactor="1.00" vaporized=""/>
    <tripinfo id="OD358_NV.0" depart="29.00" departLane="bottom2C0_0" departPos="5.10" departSpeed="10.00" departDelay="0.61" arrival="173.00" arrivalLane="A0left0_1" arrivalPos="286.40" arrivalSpeed="12.60" duration="144.00" routeLength="1192.21" waitingTime="39.00" waitingCount="3" stopTime="0.00" timeLoss="57.66" rerouteNo="0" devices="tripinfo_OD358_NV.0" vType="NV" speedFactor="1.00" vaporized=""/>
    <tripinfo id="OD266_NV.1" depart="48.00" departLane="top4E4_0" departPos="5.10" departSpeed="10.00" departDelay="0.69" arrival="173.00" arrivalLane="E1right1_2" arrivalPos="286.40" arrivalSpeed="13.35" duration="125.00" routeLength="1492.21" waitingTime="5.00" waitingCount="1" stopTime="0.00" timeLoss="16.45" rerouteNo="0" devices="tripinfo_OD266_NV.1" vType="NV" speedFactor="1.00" vaporized=""/>
    <tripinfo id="OD148_RV.0" depart="18.00" departLane="left0A0_0" departPos="5.10" departSpeed="10.00" departDelay="0.00" arrival="175.00" arrivalLane="A0left0_1" arrivalPos="286.40" arrivalSpeed="13.60" duration="157.00" routeLength="1737.70" waitingTime="11.00" waitingCount="1" stopTime="0.00" timeLoss="28.67" rerouteNo="0" devices="tripinfo_OD148_RV.0" vType="RV" speedFactor="1.00" vaporized=""/>
    <tripinfo id="OD76_NV.1" depart="104.00" departLane="right0E0_0" departPos="5.10" departSpeed="10.00" departDelay="0.91" arrival="175.00" arrivalLane="E1right1_0" arrivalPos="286.40" arrivalSpeed="12.57" duration="71.00" routeLength="858.56" waitingTime="0.00" waitingCount="0" stopTime="0.00" timeLoss="7.78" rerouteNo="0" devices="tripinfo_OD76_NV.1" vType="NV" speedFactor="1.00" vaporized=""/>
    <tripinfo id="OD358_NV.1" depart="44.00" departLane="bottom2C0_0" departPos="5.10" departSpeed="10.00" departDelay="0.66" arrival="177.00" arrivalLane="A0left0_1" arrivalPos="286.40" arrivalSpeed="12.61" duration="133.00" routeLength="1192.21" waitingTime="25.00" waitingCount="1" stopTime="0.00" timeLoss="46.49" rerouteNo="0" devices="tripinfo_OD358_NV.1" vType="NV" speedFactor="1.00" vaporized=""/>
    <tripinfo id="OD192_NV.0" depart="106.00" departLane="bottom1B0_0" departPos="5.10" departSpeed="10.00" departDelay="0.31" arrival="177.00" arrivalLane="C0bottom2_0" arrivalPos="286.40" arrivalSpeed="12.92" duration="71.00" routeLength="858.56" waitingTime="0.00" waitingCount="0" stopTime="0.00" timeLoss="7.83" rerouteNo="0" devices="tripinfo_OD192_NV.0" vType="NV" speedFactor="1.00" vaporized=""/>
    <tripinfo id="OD44_NV.0" depart="38.00" departLane="right2E2_0" departPos="5.10" departSpeed="10.00" departDelay="0.89" arrival="178.00" arrivalLane="E2right2_2" arrivalPos="286.40" arrivalSpeed="13.75" duration="140.00" routeLength="1737.70" waitingTime="0.00" waitingCount="0" stopTime="0.00" timeLoss="12.52" rerouteNo="0" devices="tripinfo_OD44_NV.0" vType="NV" speedFactor="1.00" vaporized=""/>
    <tripinfo id="OD161_NV.0" depart="108.00" departLane="left2A2_0" departPos="5.10" departSpeed="10.00" departDelay="0.85" arrival="178.00" arrivalLane="A1left1_0" arrivalPos="286.40" arrivalSpeed="12.61" duration="70.00" routeLength="858.56" waitingTime="0.00" waitingCount="0" stopTime="0.00" timeLoss="7.21" rerouteNo="0" devices="tripinfo_OD161_NV.0" vType="NV" speedFactor="1.00" vaporized=""/>
    <tripinfo id="OD167_RV.0" depart="86.00" departLane="left2A2_0" departPos="5.10" departSpeed="10.00" departDelay="0.76" arrival="179.00" arrivalLane="A0left0_0" arrivalPos="286.40" arrivalSpeed="12.59" duration="93.00" routeLength="1158.56" waitingTime="0.00" waitingCount="0" stopTime="0.00" timeLoss="7.92" rerouteNo="0" devices="tripinfo_OD167_RV.0" vType="RV" speedFactor="1.00" vaporized=""/>
    <tripinfo id="OD82_NV.0" depart="88.00" departLane="right0E0_0" departPos="5.10" departSpeed="10.00" departDelay="0.00" arrival="182.00" arrivalLane="E2right2_0" arrivalPos="286.40" arrivalSpeed="13.73" duration="94.00" routeLength="1158.56" waitingTime="0.00" waitingCount="0" stopTime="0.00" timeLoss="8.29" rerouteNo="0" devices="tripinfo_OD82_NV.0" vType="NV" speedFactor="1.00" vaporized=""/>
    <tripinfo id="OD161_NV.1" depart="110.00" departLane="left2A2_0" departPos="5.10" departSpeed="10.00" departDelay="2.36" arrival="182.00" arrivalLane="A1left1_0" arrivalPos="286.40" arrivalSpeed="12.41" duration="72.00" routeLength="858.56" waitingTime="0.00" waitingCount="0" stopTime="0.00" timeLoss="7.90" rerouteNo="0" devices="tripinfo_OD161_NV.1" vType="NV" speedFactor="1.00" vaporized=""/>
    <tripinfo id="OD319_RV.0" depart="9.00" departLane="left4A4_0" departPos="5.10" departSpeed="10.00" departDelay="3.58" arrival="187.00" arrivalLane="E4right4_1" arrivalPos="286.40" arrivalSpeed="12.87" duration="178.00" routeLength="1794.90" waitingTime="30.00" waitingCount="2" stopTime="0.00" timeLoss="48.15" rerouteNo="0" devices="tripinfo_OD319_RV.0" vType="RV" speedFactor="1.00" vaporized=""/>