<?xml version="1.0" encoding="UTF-8"?>

<!-- generated on 2025-02-15 14:05:09 by Eclipse SUMO sumo Version 1.20.0
<configuration xmlns:xsi="http://www.w3.org/2001/XMLSchema-instance" xsi:noNamespaceSchemaLocation="http://sumo.dlr.de/xsd/sumoConfiguration.xsd">

    <input>
        <net-file value="./envs/5x5/5x5.net.xml"/>
        <route-files value="./envs/5x5/Demand_20.rou.xml"/>
    </input>

    <output>
        <tripinfo-output value="./online_train/5x5\online_train_SACTF-mask-onlySV_multi_agents/tripinfo/tripinfo_ep2.xml"/>
    </output>

    <time>
        <begin value="0"/>
    </time>

    <processing>
        <time-to-teleport value="-1"/>
        <waiting-time-memory value="1800"/>
    </processing>

    <report>
        <no-step-log value="true"/>
    </report>

    <traci_server>
        <remote-port value="65388"/>
    </traci_server>

</configuration>
-->

<tripinfos xmlns:xsi="http://www.w3.org/2001/XMLSchema-instance" xsi:noNamespaceSchemaLocation="http://sumo.dlr.de/xsd/tripinfo_file.xsd">
    <tripinfo id="OD305_NV.0" depart="11.00" departLane="left4A4_0" departPos="5.10" departSpeed="10.00" departDelay="1.44" arrival="70.00" arrivalLane="A4top0_2" arrivalPos="286.40" arrivalSpeed="13.67" duration="59.00" routeLength="592.21" waitingTime="7.00" waitingCount="1" stopTime="0.00" timeLoss="15.33" rerouteNo="0" devices="tripinfo_OD305_NV.0" vType="NV" speedFactor="1.00" vaporized=""/>
    <tripinfo id="OD310_NV.0" depart="4.00" departLane="left4A4_0" departPos="5.10" departSpeed="10.00" departDelay="1.48" arrival="76.00" arrivalLane="A3left3_0" arrivalPos="286.40" arrivalSpeed="12.54" duration="72.00" routeLength="858.56" waitingTime="0.00" waitingCount="0" stopTime="0.00" timeLoss="7.93" rerouteNo="0" devices="tripinfo_OD310_NV.0" vType="NV" speedFactor="1.00" vaporized=""/>
    <tripinfo id="OD310_NV.1" depart="8.00" departLane="left4A4_0" departPos="5.10" departSpeed="10.00" departDelay="3.20" arrival="79.00" arrivalLane="A3left3_0" arrivalPos="286.40" arrivalSpeed="12.39" duration="71.00" routeLength="858.56" waitingTime="0.00" waitingCount="0" stopTime="0.00" timeLoss="7.75" rerouteNo="0" devices="tripinfo_OD310_NV.1" vType="NV" speedFactor="1.00" vaporized=""/>
    <tripinfo id="OD102_NV.0" depart="37.00" departLane="right4E4_0" departPos="5.10" departSpeed="10.00" departDelay="0.87" arrival="84.00" arrivalLane="E4top4_0" arrivalPos="286.40" arrivalSpeed="13.75" duration="47.00" routeLength="576.73" waitingTime="0.00" waitingCount="0" stopTime="0.00" timeLoss="4.31" rerouteNo="0" devices="tripinfo_OD102_NV.0" vType="NV" speedFactor="1.00" vaporized=""/>
    <tripinfo id="OD129_NV.0" depart="19.00" departLane="left1A1_0" departPos="5.10" departSpeed="10.00" departDelay="0.11" arrival="90.00" arrivalLane="A0left0_0" arrivalPos="286.40" arrivalSpeed="13.01" duration="71.00" routeLength="858.56" waitingTime="0.00" waitingCount="0" stopTime="0.00" timeLoss="7.62" rerouteNo="0" devices="tripinfo_OD129_NV.0" vType="NV" speedFactor="1.00" vaporized=""/>
    <tripinfo id="OD284_NV.0" depart="22.00" departLane="top4E4_0" departPos="5.10" departSpeed="10.00" departDelay="1.14" arrival="93.00" arrivalLane="D4top3_0" arrivalPos="286.40" arrivalSpeed="13.85" duration="71.00" routeLength="858.56" waitingTime="0.00" waitingCount="0" stopTime="0.00" timeLoss="7.77" rerouteNo="0" devices="tripinfo_OD284_NV.0" vType="NV" speedFactor="1.00" vaporized=""/>
    <tripinfo id="OD129_RV.0" depart="32.00" departLane="left1A1_0" departPos="5.10" departSpeed="10.00" departDelay="0.10" arrival="101.00" arrivalLane="A0left0_0" arrivalPos="286.40" arrivalSpeed="13.49" duration="69.00" routeLength="858.56" waitingTime="0.00" waitingCount="0" stopTime="0.00" timeLoss="6.23" rerouteNo="0" devices="tripinfo_OD129_RV.0" vType="RV" speedFactor="1.00" vaporized=""/>
    <tripinfo id="OD158_NV.0" depart="4.00" departLane="left2A2_0" departPos="5.10" departSpeed="10.00" departDelay="0.74" arrival="105.00" arrivalLane="A3left3_2" arrivalPos="286.40" arrivalSpeed="13.37" duration="101.00" routeLength="889.52" waitingTime="22.00" waitingCount="2" stopTime="0.00" timeLoss="35.34" rerouteNo="0" devices="tripinfo_OD158_NV.0" vType="NV" speedFactor="1.00" vaporized=""/>
    <tripinfo id="OD18_NV.0" depart="11.00" departLane="right3E3_0" departPos="5.10" departSpeed="10.00" departDelay="0.23" arrival="105.00" arrivalLane="D4top3_0" arrivalPos="286.40" arrivalSpeed="13.04" duration="94.00" routeLength="1155.87" waitingTime="0.00" waitingCount="0" stopTime="0.00" timeLoss="8.77" rerouteNo="0" devices="tripinfo_OD18_NV.0" vType="NV" speedFactor="1.00" vaporized=""/>
    <tripinfo id="OD142_NV.0" depart="31.00" departLane="left0A0_0" departPos="5.10" departSpeed="10.00" departDelay="0.33" arrival="106.00" arrivalLane="A1left1_2" arrivalPos="286.40" arrivalSpeed="13.51" duration="75.00" routeLength="889.52" waitingTime="0.00" waitingCount="0" stopTime="0.00" timeLoss="9.64" rerouteNo="0" devices="tripinfo_OD142_NV.0" vType="NV" speedFactor="1.00" vaporized=""/>
    <tripinfo id="OD158_NV.1" depart="13.00" departLane="left2A2_0" departPos="5.10" departSpeed="10.00" departDelay="1.11" arrival="107.00" arrivalLane="A3left3_2" arrivalPos="286.40" arrivalSpeed="13.76" duration="94.00" routeLength="889.52" waitingTime="14.00" waitingCount="2" stopTime="0.00" timeLoss="28.55" rerouteNo="0" devices="tripinfo_OD158_NV.1" vType="NV" speedFactor="1.00" vaporized=""/>
    <tripinfo id="OD310_NV.2" depart="38.00" departLane="left4A4_0" departPos="5.10" departSpeed="10.00" departDelay="0.76" arrival="109.00" arrivalLane="A3left3_0" arrivalPos="286.40" arrivalSpeed="13.33" duration="71.00" routeLength="858.56" waitingTime="0.00" waitingCount="0" stopTime="0.00" timeLoss="6.82" rerouteNo="0" devices="tripinfo_OD310_NV.2" vType="NV" speedFactor="1.00" vaporized=""/>
    <tripinfo id="OD176_NV.0" depart="40.00" departLane="top3D4_0" departPos="5.10" departSpeed="10.00" departDelay="0.16" arrival="111.00" arrivalLane="C4top2_0" arrivalPos="286.40" arrivalSpeed="12.83" duration="71.00" routeLength="858.56" waitingTime="0.00" waitingCount="0" stopTime="0.00" timeLoss="7.72" rerouteNo="0" devices="tripinfo_OD176_NV.0" vType="NV" speedFactor="1.00" vaporized=""/>
    <tripinfo id="OD169_RV.0" depart="7.00" departLane="left2A2_0" departPos="5.10" departSpeed="10.00" departDelay="0.60" arrival="119.00" arrivalLane="A0bottom0_1" arrivalPos="286.40" arrivalSpeed="13.65" duration="112.00" routeLength="1176.73" waitingTime="11.00" waitingCount="1" stopTime="0.00" timeLoss="26.42" rerouteNo="0" devices="tripinfo_OD169_RV.0" vType="RV" speedFactor="1.00" vaporized=""/>
    <tripinfo id="OD257_RV.0" depart="12.00" departLane="left3A3_0" departPos="5.10" departSpeed="10.00" departDelay="1.82" arrival="119.00" arrivalLane="A1left1_0" arrivalPos="286.40" arrivalSpeed="13.03" duration="107.00" routeLength="1158.56" waitingTime="9.00" waitingCount="1" stopTime="0.00" timeLoss="22.16" rerouteNo="0" devices="tripinfo_OD257_RV.0" vType="RV" speedFactor="1.00" vaporized=""/>
    <tripinfo id="OD65_RV.0" depart="48.00" departLane="bottom3D0_0" departPos="5.10" departSpeed="10.00" departDelay="1.05" arrival="119.00" arrivalLane="E0bottom4_0" arrivalPos="286.40" arrivalSpeed="13.70" duration="71.00" routeLength="858.56" waitingTime="0.00" waitingCount="0" stopTime="0.00" timeLoss="6.94" rerouteNo="0" devices="tripinfo_OD65_RV.0" vType="RV" speedFactor="1.00" vaporized=""/>
    <tripinfo id="OD50_NV.0" depart="49.00" departLane="right2E2_0" departPos="5.10" departSpeed="10.00" departDelay="0.93" arrival="119.00" arrivalLane="E3right3_0" arrivalPos="286.40" arrivalSpeed="13.18" duration="70.00" routeLength="858.56" waitingTime="0.00" waitingCount="0" stopTime="0.00" timeLoss="6.47" rerouteNo="0" devices="tripinfo_OD50_NV.0" vType="NV" speedFactor="1.00" vaporized=""/>
    <tripinfo id="OD107_RV.0" depart="52.00" departLane="right4E4_0" departPos="5.10" departSpeed="10.00" departDelay="0.99" arrival="122.00" arrivalLane="E3right3_2" arrivalPos="286.40" arrivalSpeed="12.72" duration="70.00" routeLength="889.52" waitingTime="0.00" waitingCount="0" stopTime="0.00" timeLoss="4.57" rerouteNo="0" devices="tripinfo_OD107_RV.0" vType="RV" speedFactor="1.00" vaporized=""/>
    <tripinfo id="OD65_NV.0" depart="54.00" departLane="bottom3D0_0" departPos="5.10" departSpeed="10.00" departDelay="0.88" arrival="124.00" arrivalLane="E0bottom4_0" arrivalPos="286.40" arrivalSpeed="13.28" duration="70.00" routeLength="858.56" waitingTime="0.00" waitingCount="0" stopTime="0.00" timeLoss="6.81" rerouteNo="0" devices="tripinfo_OD65_NV.0" vType="NV" speedFactor="1.00" vaporized=""/>
    <tripinfo id="OD284_NV.1" depart="54.00" departLane="top4E4_0" departPos="5.10" departSpeed="10.00" departDelay="0.77" arrival="125.00" arrivalLane="D4top3_0" arrivalPos="286.40" arrivalSpeed="13.19" duration="71.00" routeLength="858.56" waitingTime="0.00" waitingCount="0" stopTime="0.00" timeLoss="7.79" rerouteNo="0" devices="tripinfo_OD284_NV.1" vType="NV" speedFactor="1.00" vaporized=""/>
    <tripinfo id="OD50_NV.1" depart="61.00" departLane="right2E2_0" departPos="5.10" departSpeed="10.00" departDelay="1.59" arrival="133.00" arrivalLane="E3right3_0" arrivalPos="286.40" arrivalSpeed="13.00" duration="72.00" routeLength="858.56" waitingTime="0.00" waitingCount="0" stopTime="0.00" timeLoss="8.04" rerouteNo="0" devices="tripinfo_OD50_NV.1" vType="NV" speedFactor="1.00" vaporized=""/>
    <tripinfo id="OD184_NV.0" depart="25.00" departLane="top3D4_0" departPos="5.10" departSpeed="10.00" departDelay="5.03" arrival="134.00" arrivalLane="B4top1_0" arrivalPos="286.40" arrivalSpeed="13.12" duration="109.00" routeLength="1158.56" waitingTime="10.00" waitingCount="1" stopTime="0.00" timeLoss="24.14" rerouteNo="0" devices="tripinfo_OD184_NV.0" vType="NV" speedFactor="1.00" vaporized=""/>
    <tripinfo id="OD59_NV.0" depart="6.00" departLane="bottom3D0_0" departPos="5.10" departSpeed="10.00" departDelay="0.38" arrival="135.00" arrivalLane="C0bottom2_2" arrivalPos="286.40" arrivalSpeed="13.74" duration="129.00" routeLength="889.52" waitingTime="50.00" waitingCount="2" stopTime="0.00" timeLoss="63.06" rerouteNo="0" devices="tripinfo_OD59_NV.0" vType="NV" speedFactor="1.00" vaporized=""/>
    <tripinfo id="OD76_NV.0" depart="65.00" departLane="right0E0_0" departPos="5.10" departSpeed="10.00" departDelay="0.41" arrival="135.00" arrivalLane="E1right1_0" arrivalPos="286.40" arrivalSpeed="13.34" duration="70.00" routeLength="858.56" waitingTime="0.00" waitingCount="0" stopTime="0.00" timeLoss="6.59" rerouteNo="0" devices="tripinfo_OD76_NV.0" vType="NV" speedFactor="1.00" vaporized=""/>
    <tripinfo id="OD339_RV.0" depart="89.00" departLane="bottom0A0_0" departPos="5.10" departSpeed="10.00" departDelay="0.59" arrival="136.00" arrivalLane="A0left0_2" arrivalPos="286.40" arrivalSpeed="12.87" duration="47.00" routeLength="592.21" waitingTime="0.00" waitingCount="0" stopTime="0.00" timeLoss="3.47" rerouteNo="0" devices="tripinfo_OD339_RV.0" vType="RV" speedFactor="1.00" vaporized=""/>
    <tripinfo id="OD184_RV.0" depart="29.00" departLane="top3D4_0" departPos="5.10" departSpeed="10.00" departDelay="1.79" arrival="138.00" arrivalLane="B4top1_0" arrivalPos="286.40" arrivalSpeed="13.65" duration="109.00" routeLength="1158.56" waitingTime="6.00" waitingCount="1" stopTime="0.00" timeLoss="23.38" rerouteNo="0" devices="tripinfo_OD184_RV.0" vType="RV" speedFactor="1.00" vaporized=""/>
    <tripinfo id="OD288_RV.0" depart="59.00" departLane="top1B4_0" departPos="5.10" departSpeed="10.00" departDelay="1.65" arrival="140.00" arrivalLane="A4left4_1" arrivalPos="286.40" arrivalSpeed="12.91" duration="81.00" routeLength="876.73" waitingTime="7.00" waitingCount="1" stopTime="0.00" timeLoss="17.30" rerouteNo="0" devices="tripinfo_OD288_RV.0" vType="RV" speedFactor="1.00" vaporized=""/>
    <tripinfo id="OD50_NV.2" depart="71.00" departLane="right2E2_0" departPos="5.10" departSpeed="10.00" departDelay="0.74" arrival="142.00" arrivalLane="E3right3_0" arrivalPos="286.40" arrivalSpeed="12.98" duration="71.00" routeLength="858.56" waitingTime="0.00" waitingCount="0" stopTime="0.00" timeLoss="6.85" rerouteNo="0" devices="tripinfo_OD50_NV.2" vType="NV" speedFactor="1.00" vaporized=""/>
    <tripinfo id="OD301_NV.0" depart="1.00" departLane="top1B4_0" departPos="5.10" departSpeed="10.00" departDelay="0.26" arrival="144.00" arrivalLane="A2left2_0" arrivalPos="286.40" arrivalSpeed="13.43" duration="143.00" routeLength="1455.87" waitingTime="19.00" waitingCount="1" stopTime="0.00" timeLoss="35.45" rerouteNo="0" devices="tripinfo_OD301_NV.0" vType="NV" speedFactor="1.00" vaporized=""/>
    <tripinfo id="OD205_NV.0" depart="12.00" departLane="bottom1B0_0" departPos="5.10" departSpeed="10.00" departDelay="2.02" arrival="145.00" arrivalLane="A0left0_1" arrivalPos="286.40" arrivalSpeed="13.14" duration="133.00" routeLength="892.21" waitingTime="55.00" waitingCount="2" stopTime="0.00" timeLoss="67.55" rerouteNo="0" devices="tripinfo_OD205_NV.0" vType="NV" speedFactor="1.00" vaporized=""/>
    <tripinfo id="OD116_NV.0" depart="14.00" departLane="left1A1_0" departPos="5.10" departSpeed="10.00" departDelay="0.19" arrival="145.00" arrivalLane="C0bottom2_0" arrivalPos="286.40" arrivalSpeed="12.51" duration="131.00" routeLength="1455.87" waitingTime="5.00" waitingCount="1" stopTime="0.00" timeLoss="23.66" rerouteNo="0" devices="tripinfo_OD116_NV.0" vType="NV" speedFactor="1.00" vaporized=""/>
    <tripinfo id="OD21_RV.0" depart="16.00" departLane="top2C4_0" departPos="5.10" departSpeed="10.00" departDelay="0.63" arrival="145.00" arrivalLane="A4left4_1" arrivalPos="286.40" arrivalSpeed="12.66" duration="129.00" routeLength="1176.73" waitingTime="31.00" waitingCount="1" stopTime="0.00" timeLoss="43.42" rerouteNo="0" devices="tripinfo_OD21_RV.0" vType="RV" speedFactor="1.00" vaporized=""/>
    <tripinfo id="OD257_NV.0" depart="38.00" departLane="left3A3_0" departPos="5.10" departSpeed="10.00" departDelay="0.13" arrival="145.00" arrivalLane="A1left1_0" arrivalPos="286.40" arrivalSpeed="13.54" duration="107.00" routeLength="1158.56" waitingTime="9.00" waitingCount="1" stopTime="0.00" timeLoss="22.39" rerouteNo="0" devices="tripinfo_OD257_NV.0" vType="NV" speedFactor="1.00" vaporized=""/>
    <tripinfo id="OD358_NV.0" depart="29.00" departLane="bottom2C0_0" departPos="5.10" departSpeed="10.00" departDelay="0.61" arrival="147.00" arrivalLane="A0left0_1" arrivalPos="286.40" arrivalSpeed="13.60" duration="118.00" routeLength="1192.21" waitingTime="16.00" waitingCount="2" stopTime="0.00" timeLoss="31.17" rerouteNo="0" devices="tripinfo_OD358_NV.0" vType="NV" speedFactor="1.00" vaporized=""/>
    <tripinfo id="OD21_RV.1" depart="36.00" departLane="top2C4_0" departPos="5.10" departSpeed="10.00" departDelay="0.64" arrival="147.00" arrivalLane="A4left4_1" arrivalPos="286.40" arrivalSpeed="12.52" duration="111.00" routeLength="1176.73" waitingTime="13.00" waitingCount="1" stopTime="0.00" timeLoss="25.29" rerouteNo="0" devices="tripinfo_OD21_RV.1" vType="RV" speedFactor="1.00" vaporized=""/>
    <tripinfo id="OD176_NV.1" depart="76.00" departLane="top3D4_0" departPos="5.10" departSpeed="10.00" departDelay="1.17" arrival="147.00" arrivalLane="C4top2_0" arrivalPos="286.40" arrivalSpeed="12.42" duration="71.00" routeLength="858.56" waitingTime="0.00" waitingCount="0" stopTime="0.00" timeLoss="8.01" rerouteNo="0" devices="tripinfo_OD176_NV.1" vType="NV" speedFactor="1.00" vaporized=""/>
    <tripinfo id="OD149_NV.0" depart="7.00" departLane="left0A0_0" departPos="5.10" departSpeed="10.00" departDelay="0.02" arrival="148.00" arrivalLane="A2left2_2" arrivalPos="286.40" arrivalSpeed="13.24" duration="141.00" routeLength="1189.52" waitingTime="41.00" waitingCount="2" stopTime="0.00" timeLoss="54.06" rerouteNo="0" devices="tripinfo_OD149_NV.0" vType="NV" speedFactor="1.00" vaporized=""/>
    <tripinfo id="OD320_NV.0" depart="28.00" departLane="left4A4_0" departPos="5.10" departSpeed="10.00" departDelay="1.49" arrival="148.00" arrivalLane="A2left2_0" arrivalPos="286.40" arrivalSpeed="13.59" duration="120.00" routeLength="1158.56" waitingTime="18.00" waitingCount="1" stopTime="0.00" timeLoss="34.57" rerouteNo="0" devices="tripinfo_OD320_NV.0" vType="NV" speedFactor="1.00" vaporized=""/>
    <tripinfo id="OD372_NV.0" depart="57.00" departLane="right1E1_0" departPos="5.10" departSpeed="10.00" departDelay="0.58" arrival="148.00" arrivalLane="E0right0_2" arrivalPos="286.40" arrivalSpeed="13.66" duration="91.00" routeLength="889.52" waitingTime="15.00" waitingCount="1" stopTime="0.00" timeLoss="25.60" rerouteNo="0" devices="tripinfo_OD372_NV.0" vType="NV" speedFactor="1.00" vaporized=""/>
    <tripinfo id="OD368_NV.0" depart="78.00" departLane="right1E1_0" departPos="5.10" departSpeed="10.00" departDelay="0.11" arrival="148.00" arrivalLane="E2right2_0" arrivalPos="286.40" arrivalSpeed="13.78" duration="70.00" routeLength="858.56" waitingTime="0.00" waitingCount="0" stopTime="0.00" timeLoss="6.81" rerouteNo="0" devices="tripinfo_OD368_NV.0" vType="NV" speedFactor="1.00" vaporized=""/>
    <tripinfo id="OD358_NV.1" depart="44.00" departLane="bottom2C0_0" departPos="5.10" departSpeed="10.00" departDelay="0.66" arrival="149.00" arrivalLane="A0left0_1" arrivalPos="286.40" arrivalSpeed="13.25" duration="105.00" routeLength="1192.21" waitingTime="3.00" waitingCount="1" stopTime="0.00" timeLoss="17.98" rerouteNo="0" devices="tripinfo_OD358_NV.1" vType="NV" speedFactor="1.00" vaporized=""/>
    <tripinfo id="OD206_RV.0" depart="10.00" departLane="bottom1B0_0" departPos="5.10" departSpeed="10.00" departDelay="0.48" arrival="150.00" arrivalLane="A2left2_2" arrivalPos="286.40" arrivalSpeed="13.36" duration="140.00" routeLength="1471.35" waitingTime="19.00" waitingCount="1" stopTime="0.00" timeLoss="32.24" rerouteNo="0" devices="tripinfo_OD206_RV.0" vType="RV" speedFactor="1.00" vaporized=""/>
    <tripinfo id="OD310_NV.3" depart="82.00" departLane="left4A4_0" departPos="5.10" departSpeed="10.00" departDelay="0.90" arrival="153.00" arrivalLane="A3left3_0" arrivalPos="286.40" arrivalSpeed="12.77" duration="71.00" routeLength="858.56" waitingTime="0.00" waitingCount="0" stopTime="0.00" timeLoss="7.42" rerouteNo="0" devices="tripinfo_OD310_NV.3" vType="NV" speedFactor="1.00" vaporized=""/>
    <tripinfo id="OD130_NV.0" depart="83.00" departLane="left1A1_0" departPos="5.10" departSpeed="10.00" departDelay="0.31" arrival="153.00" arrivalLane="A2left2_2" arrivalPos="286.40" arrivalSpeed="13.29" duration="70.00" routeLength="889.52" waitingTime="0.00" waitingCount="0" stopTime="0.00" timeLoss="4.74" rerouteNo="0" devices="tripinfo_OD130_NV.0" vType="NV" speedFactor="1.00" vaporized=""/>
    <tripinfo id="OD7_NV.0" depart="77.00" departLane="right3E3_0" departPos="5.10" departSpeed="10.00" departDelay="0.10" arrival="159.00" arrivalLane="E4top4_1" arrivalPos="286.40" arrivalSpeed="13.74" duration="82.00" routeLength="876.73" waitingTime="8.00" waitingCount="1" stopTime="0.00" timeLoss="18.20" rerouteNo="0" devices="tripinfo_OD7_NV.0" vType="NV" speedFactor="1.00" vaporized=""/>
    <tripinfo id="OD113_NV.0" depart="35.00" departLane="right4E4_0" departPos="5.10" departSpeed="10.00" departDelay="0.56" arrival="160.00" arrivalLane="D4top3_0" arrivalPos="286.40" arrivalSpeed="13.25" duration="125.00" routeLength="876.73" waitingTime="50.00" waitingCount="1" stopTime="0.00" timeLoss="60.73" rerouteNo="0" devices="tripinfo_OD113_NV.0" vType="NV" speedFactor="1.00" vaporized=""/>
    <tripinfo id="OD365_NV.0" depart="7.00" departLane="right1E1_0" departPos="5.10" departSpeed="10.00" departDelay="0.05" arrival="161.00" arrivalLane="D0bottom3_1" arrivalPos="286.40" arrivalSpeed="13.63" duration="154.00" routeLength="1192.21" waitingTime="51.00" waitingCount="2" stopTime="0.00" timeLoss="66.73" rerouteNo="0" devices="tripinfo_OD365_NV.0" vType="NV" speedFactor="1.00" vaporized=""/>
    <tripinfo id="OD14_NV.0" depart="90.00" departLane="right3E3_0" departPos="5.10" departSpeed="10.00" departDelay="0.85" arrival="161.00" arrivalLane="E4right4_0" arrivalPos="286.40" arrivalSpeed="13.64" duration="71.00" routeLength="858.56" waitingTime="0.00" waitingCount="0" stopTime="0.00" timeLoss="6.59" rerouteNo="0" devices="tripinfo_OD14_NV.0" vType="NV" speedFactor="1.00" vaporized=""/>
    <tripinfo id="OD374_NV.0" depart="12.00" departLane="right1E1_0" departPos="5.10" departSpeed="10.00" departDelay="2.10" arrival="162.00" arrivalLane="E3right3_0" arrivalPos="286.40" arrivalSpeed="12.92" duration="150.00" routeLength="1158.56" waitingTime="51.00" waitingCount="1" stopTime="0.00" timeLoss="64.30" rerouteNo="0" devices="tripinfo_OD374_NV.0" vType="NV" speedFactor="1.00" vaporized=""/>
    <tripinfo id="OD291_NV.0" depart="3.00" departLane="top1B4_0" departPos="5.10" departSpeed="10.00" departDelay="0.51" arrival="170.00" arrivalLane="A3left3_1" arrivalPos="286.40" arrivalSpeed="12.66" duration="167.00" routeLength="1176.73" waitingTime="67.00" waitingCount="2" stopTime="0.00" timeLoss="81.79" rerouteNo="0" devices="tripinfo_OD291_NV.0" vType="NV" speedFactor="1.00" vaporized=""/>
    <tripinfo id="OD320_NV.1" depart="75.00" departLane="left4A4_0" departPos="5.10" departSpeed="10.00" departDelay="0.44" arrival="170.00" arrivalLane="A2left2_0" arrivalPos="286.40" arrivalSpeed="12.50" duration="95.00" routeLength="1158.56" waitingTime="0.00" waitingCount="0" stopTime="0.00" timeLoss="9.90" rerouteNo="0" devices="tripinfo_OD320_NV.1" vType="NV" speedFactor="1.00" vaporized=""/>
    <tripinfo id="OD354_NV.0" depart="10.00" departLane="bottom2C0_0" departPos="5.10" departSpeed="10.00" departDelay="0.22" arrival="172.00" arrivalLane="B0bottom1_2" arrivalPos="286.40" arrivalSpeed="13.09" duration="162.00" routeLength="889.52" waitingTime="85.00" waitingCount="1" stopTime="0.00" timeLoss="96.09" rerouteNo="0" devices="tripinfo_OD354_NV.0" vType="NV" speedFactor="1.00" vaporized=""/>
    <tripinfo id="OD368_NV.1" depart="101.00" departLane="right1E1_0" departPos="5.10" departSpeed="10.00" departDelay="0.86" arrival="172.00" arrivalLane="E2right2_0" arrivalPos="286.40" arrivalSpeed="12.39" duration="71.00" routeLength="858.56" waitingTime="0.00" waitingCount="0" stopTime="0.00" timeLoss="7.03" rerouteNo="0" devices="tripinfo_OD368_NV.1" vType="NV" speedFactor="1.00" vaporized=""/>
    <tripinfo id="OD310_NV.4" depart="101.00" departLane="left4A4_0" departPos="5.10" departSpeed="10.00" departDelay="0.28" arrival="172.00" arrivalLane="A3left3_0" arrivalPos="286.40" arrivalSpeed="12.51" duration="71.00" routeLength="858.56" waitingTime="0.00" waitingCount="0" stopTime="0.00" timeLoss="7.45" rerouteNo="0" devices="tripinfo_OD310_NV.4" vType="NV" speedFactor="1.00" vaporized=""/>
    <tripinfo id="OD52_NV.0" depart="59.00" departLane="right2E2_0" departPos="5.10" departSpeed="10.00" departDelay="0.01" arrival="173.00" arrivalLane="E4right4_0" arrivalPos="286.40" arrivalSpeed="12.49" duration="114.00" routeLength="1158.56" waitingTime="14.00" waitingCount="1" stopTime="0.00" timeLoss="28.81" rerouteNo="0" devices="tripinfo_OD52_NV.0" vType="NV" speedFactor="1.00" vaporized=""/>
    <tripinfo id="OD68_RV.0" depart="20.00" departLane="bottom3D0_0" departPos="5.10" departSpeed="10.00" departDelay="0.38" arrival="174.00" arrivalLane="B0bottom1_2" arrivalPos="286.40" arrivalSpeed="13.09" duration="154.00" routeLength="1189.52" waitingTime="50.00" waitingCount="2" stopTime="0.00" timeLoss="66.51" rerouteNo="0" devices="tripinfo_OD68_RV.0" vType="RV" speedFactor="1.00" vaporized=""/>
    <tripinfo id="OD135_NV.0" depart="51.00" departLane="left0A0_0" departPos="5.10" departSpeed="10.00" departDelay="0.64" arrival="175.00" arrivalLane="C0bottom2_0" arrivalPos="286.40" arrivalSpeed="13.78" duration="124.00" routeLength="1176.73" waitingTime="15.00" waitingCount="2" stopTime="0.00" timeLoss="38.03" rerouteNo="0" devices="tripinfo_OD135_NV.0" vType="NV" speedFactor="1.00" vaporized=""/>
    <tripinfo id="OD76_NV.1" depart="104.00" departLane="right0E0_0" departPos="5.10" departSpeed="10.00" departDelay="0.91" arrival="175.00" arrivalLane="E1right1_0" arrivalPos="286.40" arrivalSpeed="12.76" duration="71.00" routeLength="858.56" waitingTime="0.00" waitingCount="0" stopTime="0.00" timeLoss="6.99" rerouteNo="0" devices="tripinfo_OD76_NV.1" vType="NV" speedFactor="1.00" vaporized=""/>
    <tripinfo id="OD352_NV.0" depart="31.00" departLane="bottom2C0_0" departPos="5.10" departSpeed="10.00" departDelay="0.70" arrival="176.00" arrivalLane="A1left1_2" arrivalPos="286.40" arrivalSpeed="12.52" duration="145.00" routeLength="1471.35" waitingTime="17.00" waitingCount="2" stopTime="0.00" timeLoss="36.56" rerouteNo="0" devices="tripinfo_OD352_NV.0" vType="NV" speedFactor="1.00" vaporized=""/>
    <tripinfo id="OD354_RV.0" depart="92.00" departLane="bottom2C0_0" departPos="5.10" departSpeed="10.00" departDelay="1.84" arrival="176.00" arrivalLane="B0bottom1_2" arrivalPos="286.40" arrivalSpeed="12.92" duration="84.00" routeLength="889.52" waitingTime="6.00" waitingCount="1" stopTime="0.00" timeLoss="18.26" rerouteNo="0" devices="tripinfo_OD354_RV.0" vType="RV" speedFactor="1.00" vaporized=""/>
    <tripinfo id="OD192_NV.0" depart="106.00" departLane="bottom1B0_0" departPos="5.10" departSpeed="10.00" departDelay="0.31" arrival="178.00" arrivalLane="C0bottom2_0" arrivalPos="286.40" arrivalSpeed="12.77" duration="72.00" routeLength="858.56" waitingTime="0.00" waitingCount="0" stopTime="0.00" timeLoss="8.24" rerouteNo="0" devices="tripinfo_OD192_NV.0" vType="NV" speedFactor="1.00" vaporized=""/>
    <tripinfo id="OD199_NV.0" depart="16.00" departLane="bottom1B0_0" departPos="5.10" departSpeed="10.00" departDelay="3.02" arrival="179.00" arrivalLane="E0bottom4_0" arrivalPos="286.40" arrivalSpeed="13.54" duration="163.00" routeLength="1458.56" waitingTime="29.00" waitingCount="2" stopTime="0.00" timeLoss="56.36" rerouteNo="0" devices="tripinfo_OD199_NV.0" vType="NV" speedFactor="1.00" vaporized=""/>
    <tripinfo id="OD161_NV.0" depart="108.00" departLane="left2A2_0" departPos="5.10" departSpeed="10.00" departDelay="0.85" arrival="179.00" arrivalLane="A1left1_0" arrivalPos="286.40" arrivalSpeed="13.55" duration="71.00" routeLength="858.56" waitingTime="0.00" waitingCount="0" stopTime="0.00" timeLoss="7.63" rerouteNo="0" devices="tripinfo_OD161_NV.0" vType="NV" speedFactor="1.00" vaporized=""/>
    <tripinfo id="OD161_NV.1" depart="109.00" departLane="left2A2_0" departPos="5.10" departSpeed="10.00" departDelay="1.36" arrival="182.00" arrivalLane="A1left1_0" arrivalPos="286.40" arrivalSpeed="12.64" duration="73.00" routeLength="858.56" waitingTime="0.00" waitingCount="0" stopTime="0.00" timeLoss="8.98" rerouteNo="0" devices="tripinfo_OD161_NV.1" vType="NV" speedFactor="1.00" vaporized=""/>
    <tripinfo id="OD187_NV.0" depart="5.00" departLane="top3D4_0" departPos="5.10" departSpeed="10.00" departDelay="0.79" arrival="183.00" arrivalLane="A2left2_0" arrivalPos="286.40" arrivalSpeed="13.20" duration="178.00" routeLength="2035.01" waitingTime="5.00" waitingCount="2" stopTime="0.00" timeLoss="28.36" rerouteNo="0" devices="tripinfo_OD187_NV.0" vType="NV" speedFactor="1.00" vaporized=""/>
    <tripinfo id="OD131_NV.0" depart="80.00" departLane="left1A1_0" departPos="5.10" departSpeed="10.00" departDelay="0.33" arrival="184.00" arrivalLane="A0bottom0_1" arrivalPos="286.40" arrivalSpeed="13.81" duration="104.00" routeLength="876.73" waitingTime="29.00" waitingCount="1" stopTime="0.00" timeLoss="40.20" rerouteNo="0" devices="tripinfo_OD131_NV.0" vType="NV" speedFactor="1.00" vaporized=""/>
    <tripinfo id="OD57_NV.0" depart="88.00" departLane="bottom3D0_0" departPos="5.10" departSpeed="10.00" departDelay="0.03" arrival="184.00" arrivalLane="E1right1_0" arrivalPos="286.40" arrivalSpeed="13.73" duration="96.00" routeLength="1155.87" waitingTime="0.00" waitingCount="0" stopTime="0.00" timeLoss="9.70" rerouteNo="0" devices="tripinfo_OD57_NV.0" vType="NV" speedFactor="1.00" vaporized=""/>
    <tripinfo id="OD353_RV.0" depart="6.00" departLane="bottom2C0_0" departPos="5.10" departSpeed="10.00" departDelay="3.40" arrival="186.00" arrivalLane="E0right0_1" arrivalPos="286.40" arrivalSpeed="12.71" duration="180.00" routeLength="1176.73" waitingTime="78.00" waitingCount="2" stopTime="0.00" timeLoss="93.58" rerouteNo="0" devices="tripinfo_OD353_RV.0" vType="RV" speedFactor="1.00" vaporized=""/>
    <tripinfo id="OD45_NV.0" depart="6.00" departLane="right2E2_0" departPos="5.10" departSpeed="10.00" departDelay="0.70" arrival="186.00" arrivalLane="E4top4_1" arrivalPos="286.40" arrivalSpeed="12.57" duration="180.00" routeLength="1176.73" waitingTime="77.00" waitingCount="2" stopTime="0.00" timeLoss="94.27" rerouteNo="0" devices="tripinfo_OD45_NV.0" vType="NV" speedFactor="1.00" vaporized=""/>
    <tripinfo id="OD38_NV.0" depart="8.00" departLane="right2E2_0" departPos="5.10" departSpeed="10.00" departDelay="1.45" arrival="186.00" arrivalLane="E1right1_2" arrivalPos="286.40" arrivalSpeed="12.73" duration="178.00" routeLength="889.52" waitingTime="100.00" waitingCount="2" stopTime="0.00" timeLoss="112.28" rerouteNo="0" devices="tripinfo_OD38_NV.0" vType="NV" speedFactor="1.00" vaporized=""/>
    <tripinfo id="OD169_NV.0" depart="17.00" departLane="left2A2_0" departPos="5.10" departSpeed="10.00" departDelay="0.59" arrival="186.00" arrivalLane="A0bottom0_1" arrivalPos="286.40" arrivalSpeed="13.41" duration="169.00" routeLength="1176.73" waitingTime="60.00" waitingCount="2" stopTime="0.00" timeLoss="83.04" rerouteNo="0" devices="tripinfo_OD169_NV.0" vType="NV" speedFactor="1.00" vaporized=""/>