<?xml version="1.0" encoding="UTF-8"?>

<!-- generated on 2025-02-16 15:48:02 by Eclipse SUMO sumo Version 1.20.0
<configuration xmlns:xsi="http://www.w3.org/2001/XMLSchema-instance" xsi:noNamespaceSchemaLocation="http://sumo.dlr.de/xsd/sumoConfiguration.xsd">

    <input>
        <net-file value="./envs/5x5/5x5.net.xml"/>
        <route-files value="./envs/5x5/Demand_20.rou.xml"/>
    </input>

    <output>
        <tripinfo-output value="./online_train/5x5\online_train_SACTF-mask-onlySV_multi_agents/tripinfo/tripinfo_ep137.xml"/>
    </output>

    <time>
        <begin value="0"/>
    </time>

    <processing>
        <time-to-teleport value="-1"/>
        <waiting-time-memory value="1800"/>
    </processing>

    <report>
        <no-step-log value="true"/>
    </report>

    <traci_server>
        <remote-port value="63630"/>
    </traci_server>

</configuration>
-->

<tripinfos xmlns:xsi="http://www.w3.org/2001/XMLSchema-instance" xsi:noNamespaceSchemaLocation="http://sumo.dlr.de/xsd/tripinfo_file.xsd">
    <tripinfo id="OD310_NV.0" depart="4.00" departLane="left4A4_0" departPos="5.10" departSpeed="10.00" departDelay="1.48" arrival="75.00" arrivalLane="A3left3_0" arrivalPos="286.40" arrivalSpeed="12.84" duration="71.00" routeLength="858.56" waitingTime="0.00" waitingCount="0" stopTime="0.00" timeLoss="7.18" rerouteNo="0" devices="tripinfo_OD310_NV.0" vType="NV" speedFactor="1.00" vaporized=""/>
    <tripinfo id="OD310_NV.1" depart="8.00" departLane="left4A4_0" departPos="5.10" departSpeed="10.00" departDelay="3.20" arrival="79.00" arrivalLane="A3left3_0" arrivalPos="286.40" arrivalSpeed="12.45" duration="71.00" routeLength="858.56" waitingTime="0.00" waitingCount="0" stopTime="0.00" timeLoss="7.22" rerouteNo="0" devices="tripinfo_OD310_NV.1" vType="NV" speedFactor="1.00" vaporized=""/>
    <tripinfo id="OD102_NV.0" depart="37.00" departLane="right4E4_0" departPos="5.10" departSpeed="10.00" departDelay="0.87" arrival="84.00" arrivalLane="E4top4_0" arrivalPos="286.40" arrivalSpeed="13.23" duration="47.00" routeLength="576.73" waitingTime="0.00" waitingCount="0" stopTime="0.00" timeLoss="4.15" rerouteNo="0" devices="tripinfo_OD102_NV.0" vType="NV" speedFactor="1.00" vaporized=""/>
    <tripinfo id="OD129_NV.0" depart="19.00" departLane="left1A1_0" departPos="5.10" departSpeed="10.00" departDelay="0.11" arrival="90.00" arrivalLane="A0left0_0" arrivalPos="286.40" arrivalSpeed="13.03" duration="71.00" routeLength="858.56" waitingTime="0.00" waitingCount="0" stopTime="0.00" timeLoss="7.81" rerouteNo="0" devices="tripinfo_OD129_NV.0" vType="NV" speedFactor="1.00" vaporized=""/>
    <tripinfo id="OD284_NV.0" depart="22.00" departLane="top4E4_0" departPos="5.10" departSpeed="10.00" departDelay="1.14" arrival="93.00" arrivalLane="D4top3_0" arrivalPos="286.40" arrivalSpeed="12.50" duration="71.00" routeLength="858.56" waitingTime="0.00" waitingCount="0" stopTime="0.00" timeLoss="7.37" rerouteNo="0" devices="tripinfo_OD284_NV.0" vType="NV" speedFactor="1.00" vaporized=""/>
    <tripinfo id="OD45_NV.0" depart="6.00" departLane="right2E2_0" departPos="5.10" departSpeed="10.00" departDelay="0.70" arrival="98.00" arrivalLane="E4top4_1" arrivalPos="286.40" arrivalSpeed="13.18" duration="92.00" routeLength="1176.73" waitingTime="0.00" waitingCount="0" stopTime="0.00" timeLoss="6.80" rerouteNo="0" devices="tripinfo_OD45_NV.0" vType="NV" speedFactor="1.00" vaporized=""/>
    <tripinfo id="OD354_NV.0" depart="10.00" departLane="bottom2C0_0" departPos="5.10" departSpeed="10.00" departDelay="0.22" arrival="98.00" arrivalLane="B0bottom1_2" arrivalPos="286.40" arrivalSpeed="12.88" duration="88.00" routeLength="889.52" waitingTime="8.00" waitingCount="2" stopTime="0.00" timeLoss="22.22" rerouteNo="0" devices="tripinfo_OD354_NV.0" vType="NV" speedFactor="1.00" vaporized=""/>
    <tripinfo id="OD129_RV.0" depart="32.00" departLane="left1A1_0" departPos="5.10" departSpeed="10.00" departDelay="0.10" arrival="101.00" arrivalLane="A0left0_0" arrivalPos="286.40" arrivalSpeed="13.11" duration="69.00" routeLength="858.56" waitingTime="0.00" waitingCount="0" stopTime="0.00" timeLoss="6.13" rerouteNo="0" devices="tripinfo_OD129_RV.0" vType="RV" speedFactor="1.00" vaporized=""/>
    <tripinfo id="OD169_RV.0" depart="7.00" departLane="left2A2_0" departPos="5.10" departSpeed="10.00" departDelay="0.60" arrival="106.00" arrivalLane="A0bottom0_1" arrivalPos="286.40" arrivalSpeed="12.48" duration="99.00" routeLength="1176.73" waitingTime="2.00" waitingCount="1" stopTime="0.00" timeLoss="13.34" rerouteNo="0" devices="tripinfo_OD169_RV.0" vType="RV" speedFactor="1.00" vaporized=""/>
    <tripinfo id="OD18_NV.0" depart="11.00" departLane="right3E3_0" departPos="5.10" departSpeed="10.00" departDelay="0.23" arrival="106.00" arrivalLane="D4top3_0" arrivalPos="286.40" arrivalSpeed="13.14" duration="95.00" routeLength="1155.87" waitingTime="0.00" waitingCount="0" stopTime="0.00" timeLoss="8.98" rerouteNo="0" devices="tripinfo_OD18_NV.0" vType="NV" speedFactor="1.00" vaporized=""/>
    <tripinfo id="OD310_NV.2" depart="38.00" departLane="left4A4_0" departPos="5.10" departSpeed="10.00" departDelay="0.76" arrival="109.00" arrivalLane="A3left3_0" arrivalPos="286.40" arrivalSpeed="13.40" duration="71.00" routeLength="858.56" waitingTime="0.00" waitingCount="0" stopTime="0.00" timeLoss="7.08" rerouteNo="0" devices="tripinfo_OD310_NV.2" vType="NV" speedFactor="1.00" vaporized=""/>
    <tripinfo id="OD176_NV.0" depart="40.00" departLane="top3D4_0" departPos="5.10" departSpeed="10.00" departDelay="0.16" arrival="111.00" arrivalLane="C4top2_0" arrivalPos="286.40" arrivalSpeed="12.54" duration="71.00" routeLength="858.56" waitingTime="0.00" waitingCount="0" stopTime="0.00" timeLoss="7.46" rerouteNo="0" devices="tripinfo_OD176_NV.0" vType="NV" speedFactor="1.00" vaporized=""/>
    <tripinfo id="OD257_RV.0" depart="12.00" departLane="left3A3_0" departPos="5.10" departSpeed="10.00" departDelay="1.82" arrival="119.00" arrivalLane="A1left1_0" arrivalPos="286.40" arrivalSpeed="13.66" duration="107.00" routeLength="1158.56" waitingTime="9.00" waitingCount="1" stopTime="0.00" timeLoss="21.49" rerouteNo="0" devices="tripinfo_OD257_RV.0" vType="RV" speedFactor="1.00" vaporized=""/>
    <tripinfo id="OD21_RV.0" depart="16.00" departLane="top2C4_0" departPos="5.10" departSpeed="10.00" departDelay="0.63" arrival="119.00" arrivalLane="A4left4_1" arrivalPos="286.40" arrivalSpeed="13.89" duration="103.00" routeLength="1176.73" waitingTime="6.00" waitingCount="1" stopTime="0.00" timeLoss="17.49" rerouteNo="0" devices="tripinfo_OD21_RV.0" vType="RV" speedFactor="1.00" vaporized=""/>
    <tripinfo id="OD65_RV.0" depart="48.00" departLane="bottom3D0_0" departPos="5.10" departSpeed="10.00" departDelay="1.05" arrival="119.00" arrivalLane="E0bottom4_0" arrivalPos="286.40" arrivalSpeed="12.98" duration="71.00" routeLength="858.56" waitingTime="0.00" waitingCount="0" stopTime="0.00" timeLoss="7.44" rerouteNo="0" devices="tripinfo_OD65_RV.0" vType="RV" speedFactor="1.00" vaporized=""/>
    <tripinfo id="OD353_RV.0" depart="6.00" departLane="bottom2C0_0" departPos="5.10" departSpeed="10.00" departDelay="3.40" arrival="120.00" arrivalLane="E0right0_1" arrivalPos="286.40" arrivalSpeed="13.39" duration="114.00" routeLength="1176.73" waitingTime="16.00" waitingCount="1" stopTime="0.00" timeLoss="27.90" rerouteNo="0" devices="tripinfo_OD353_RV.0" vType="RV" speedFactor="1.00" vaporized=""/>
    <tripinfo id="OD184_NV.0" depart="25.00" departLane="top3D4_0" departPos="5.10" departSpeed="10.00" departDelay="5.03" arrival="120.00" arrivalLane="B4top1_0" arrivalPos="286.40" arrivalSpeed="13.51" duration="95.00" routeLength="1158.56" waitingTime="0.00" waitingCount="0" stopTime="0.00" timeLoss="9.08" rerouteNo="0" devices="tripinfo_OD184_NV.0" vType="NV" speedFactor="1.00" vaporized=""/>
    <tripinfo id="OD50_NV.0" depart="49.00" departLane="right2E2_0" departPos="5.10" departSpeed="10.00" departDelay="0.93" arrival="120.00" arrivalLane="E3right3_0" arrivalPos="286.40" arrivalSpeed="13.74" duration="71.00" routeLength="858.56" waitingTime="0.00" waitingCount="0" stopTime="0.00" timeLoss="6.98" rerouteNo="0" devices="tripinfo_OD50_NV.0" vType="NV" speedFactor="1.00" vaporized=""/>
    <tripinfo id="OD184_RV.0" depart="29.00" departLane="top3D4_0" departPos="5.10" departSpeed="10.00" departDelay="1.79" arrival="124.00" arrivalLane="B4top1_0" arrivalPos="286.40" arrivalSpeed="13.48" duration="95.00" routeLength="1158.56" waitingTime="0.00" waitingCount="0" stopTime="0.00" timeLoss="9.99" rerouteNo="0" devices="tripinfo_OD184_RV.0" vType="RV" speedFactor="1.00" vaporized=""/>
    <tripinfo id="OD65_NV.0" depart="54.00" departLane="bottom3D0_0" departPos="5.10" departSpeed="10.00" departDelay="0.88" arrival="124.00" arrivalLane="E0bottom4_0" arrivalPos="286.40" arrivalSpeed="12.47" duration="70.00" routeLength="858.56" waitingTime="0.00" waitingCount="0" stopTime="0.00" timeLoss="6.59" rerouteNo="0" devices="tripinfo_OD65_NV.0" vType="NV" speedFactor="1.00" vaporized=""/>
    <tripinfo id="OD284_NV.1" depart="54.00" departLane="top4E4_0" departPos="5.10" departSpeed="10.00" departDelay="0.77" arrival="125.00" arrivalLane="D4top3_0" arrivalPos="286.40" arrivalSpeed="13.55" duration="71.00" routeLength="858.56" waitingTime="0.00" waitingCount="0" stopTime="0.00" timeLoss="7.57" rerouteNo="0" devices="tripinfo_OD284_NV.1" vType="NV" speedFactor="1.00" vaporized=""/>
    <tripinfo id="OD68_RV.0" depart="20.00" departLane="bottom3D0_0" departPos="5.10" departSpeed="10.00" departDelay="0.38" arrival="129.00" arrivalLane="B0bottom1_2" arrivalPos="286.40" arrivalSpeed="13.06" duration="109.00" routeLength="1189.52" waitingTime="7.00" waitingCount="2" stopTime="0.00" timeLoss="21.89" rerouteNo="0" devices="tripinfo_OD68_RV.0" vType="RV" speedFactor="1.00" vaporized=""/>
    <tripinfo id="OD50_NV.1" depart="61.00" departLane="right2E2_0" departPos="5.10" departSpeed="10.00" departDelay="1.59" arrival="132.00" arrivalLane="E3right3_0" arrivalPos="286.40" arrivalSpeed="12.96" duration="71.00" routeLength="858.56" waitingTime="0.00" waitingCount="0" stopTime="0.00" timeLoss="7.31" rerouteNo="0" devices="tripinfo_OD50_NV.1" vType="NV" speedFactor="1.00" vaporized=""/>
    <tripinfo id="OD76_NV.0" depart="65.00" departLane="right0E0_0" departPos="5.10" departSpeed="10.00" departDelay="0.41" arrival="136.00" arrivalLane="E1right1_0" arrivalPos="286.40" arrivalSpeed="12.94" duration="71.00" routeLength="858.56" waitingTime="0.00" waitingCount="0" stopTime="0.00" timeLoss="7.59" rerouteNo="0" devices="tripinfo_OD76_NV.0" vType="NV" speedFactor="1.00" vaporized=""/>
    <tripinfo id="OD169_NV.0" depart="17.00" departLane="left2A2_0" departPos="5.10" departSpeed="10.00" departDelay="0.59" arrival="137.00" arrivalLane="A0bottom0_1" arrivalPos="286.40" arrivalSpeed="12.55" duration="120.00" routeLength="1176.73" waitingTime="14.00" waitingCount="2" stopTime="0.00" timeLoss="33.70" rerouteNo="0" devices="tripinfo_OD169_NV.0" vType="NV" speedFactor="1.00" vaporized=""/>
    <tripinfo id="OD135_NV.0" depart="51.00" departLane="left0A0_0" departPos="5.10" departSpeed="10.00" departDelay="0.64" arrival="143.00" arrivalLane="C0bottom2_0" arrivalPos="286.40" arrivalSpeed="12.41" duration="92.00" routeLength="1176.73" waitingTime="0.00" waitingCount="0" stopTime="0.00" timeLoss="6.49" rerouteNo="0" devices="tripinfo_OD135_NV.0" vType="NV" speedFactor="1.00" vaporized=""/>
    <tripinfo id="OD50_NV.2" depart="72.00" departLane="right2E2_0" departPos="5.10" departSpeed="10.00" departDelay="1.74" arrival="143.00" arrivalLane="E3right3_0" arrivalPos="286.40" arrivalSpeed="13.52" duration="71.00" routeLength="858.56" waitingTime="0.00" waitingCount="0" stopTime="0.00" timeLoss="7.55" rerouteNo="0" devices="tripinfo_OD50_NV.2" vType="NV" speedFactor="1.00" vaporized=""/>
    <tripinfo id="OD149_NV.0" depart="7.00" departLane="left0A0_0" departPos="5.10" departSpeed="10.00" departDelay="0.02" arrival="146.00" arrivalLane="A2left2_2" arrivalPos="286.40" arrivalSpeed="12.53" duration="139.00" routeLength="1189.52" waitingTime="34.00" waitingCount="3" stopTime="0.00" timeLoss="51.73" rerouteNo="0" devices="tripinfo_OD149_NV.0" vType="NV" speedFactor="1.00" vaporized=""/>
    <tripinfo id="OD21_RV.1" depart="36.00" departLane="top2C4_0" departPos="5.10" departSpeed="10.00" departDelay="0.64" arrival="146.00" arrivalLane="A4left4_1" arrivalPos="286.40" arrivalSpeed="13.83" duration="110.00" routeLength="1176.73" waitingTime="12.00" waitingCount="1" stopTime="0.00" timeLoss="24.28" rerouteNo="0" devices="tripinfo_OD21_RV.1" vType="RV" speedFactor="1.00" vaporized=""/>
    <tripinfo id="OD176_NV.1" depart="76.00" departLane="top3D4_0" departPos="5.10" departSpeed="10.00" departDelay="1.17" arrival="147.00" arrivalLane="C4top2_0" arrivalPos="286.40" arrivalSpeed="12.63" duration="71.00" routeLength="858.56" waitingTime="0.00" waitingCount="0" stopTime="0.00" timeLoss="7.23" rerouteNo="0" devices="tripinfo_OD176_NV.1" vType="NV" speedFactor="1.00" vaporized=""/>
    <tripinfo id="OD179_NV.0" depart="57.00" departLane="top3D4_0" departPos="5.10" departSpeed="10.00" departDelay="0.69" arrival="148.00" arrivalLane="E4top4_2" arrivalPos="286.40" arrivalSpeed="13.64" duration="91.00" routeLength="889.52" waitingTime="13.00" waitingCount="2" stopTime="0.00" timeLoss="25.94" rerouteNo="0" devices="tripinfo_OD179_NV.0" vType="NV" speedFactor="1.00" vaporized=""/>
    <tripinfo id="OD288_RV.0" depart="59.00" departLane="top1B4_0" departPos="5.10" departSpeed="10.00" departDelay="1.65" arrival="148.00" arrivalLane="A4left4_1" arrivalPos="286.40" arrivalSpeed="13.64" duration="89.00" routeLength="876.73" waitingTime="10.00" waitingCount="1" stopTime="0.00" timeLoss="24.62" rerouteNo="0" devices="tripinfo_OD288_RV.0" vType="RV" speedFactor="1.00" vaporized=""/>
    <tripinfo id="OD368_NV.0" depart="78.00" departLane="right1E1_0" departPos="5.10" departSpeed="10.00" departDelay="0.11" arrival="149.00" arrivalLane="E2right2_0" arrivalPos="286.40" arrivalSpeed="13.73" duration="71.00" routeLength="858.56" waitingTime="0.00" waitingCount="0" stopTime="0.00" timeLoss="7.92" rerouteNo="0" devices="tripinfo_OD368_NV.0" vType="NV" speedFactor="1.00" vaporized=""/>
    <tripinfo id="OD174_NV.0" depart="19.00" departLane="top3D4_0" departPos="5.10" departSpeed="10.00" departDelay="0.66" arrival="150.00" arrivalLane="A4left4_1" arrivalPos="286.40" arrivalSpeed="13.79" duration="131.00" routeLength="1476.73" waitingTime="6.00" waitingCount="1" stopTime="0.00" timeLoss="23.39" rerouteNo="0" devices="tripinfo_OD174_NV.0" vType="NV" speedFactor="1.00" vaporized=""/>
    <tripinfo id="OD339_RV.0" depart="89.00" departLane="bottom0A0_0" departPos="5.10" departSpeed="10.00" departDelay="0.59" arrival="150.00" arrivalLane="A0left0_2" arrivalPos="286.40" arrivalSpeed="13.48" duration="61.00" routeLength="592.21" waitingTime="10.00" waitingCount="1" stopTime="0.00" timeLoss="17.09" rerouteNo="0" devices="tripinfo_OD339_RV.0" vType="RV" speedFactor="1.00" vaporized=""/>
    <tripinfo id="OD174_NV.1" depart="23.00" departLane="top3D4_0" departPos="5.10" departSpeed="10.00" departDelay="3.67" arrival="151.00" arrivalLane="A4left4_1" arrivalPos="286.40" arrivalSpeed="13.85" duration="128.00" routeLength="1476.73" waitingTime="5.00" waitingCount="1" stopTime="0.00" timeLoss="21.17" rerouteNo="0" devices="tripinfo_OD174_NV.1" vType="NV" speedFactor="1.00" vaporized=""/>
    <tripinfo id="OD310_NV.3" depart="82.00" departLane="left4A4_0" departPos="5.10" departSpeed="10.00" departDelay="0.90" arrival="153.00" arrivalLane="A3left3_0" arrivalPos="286.40" arrivalSpeed="13.47" duration="71.00" routeLength="858.56" waitingTime="0.00" waitingCount="0" stopTime="0.00" timeLoss="7.89" rerouteNo="0" devices="tripinfo_OD310_NV.3" vType="NV" speedFactor="1.00" vaporized=""/>
    <tripinfo id="OD257_NV.0" depart="38.00" departLane="left3A3_0" departPos="5.10" departSpeed="10.00" departDelay="0.13" arrival="156.00" arrivalLane="A1left1_0" arrivalPos="286.40" arrivalSpeed="12.46" duration="118.00" routeLength="1158.56" waitingTime="20.00" waitingCount="1" stopTime="0.00" timeLoss="32.76" rerouteNo="0" devices="tripinfo_OD257_NV.0" vType="NV" speedFactor="1.00" vaporized=""/>
    <tripinfo id="OD87_NV.0" depart="25.00" departLane="right0E0_0" departPos="5.10" departSpeed="10.00" departDelay="0.35" arrival="160.00" arrivalLane="B0bottom1_2" arrivalPos="286.40" arrivalSpeed="12.95" duration="135.00" routeLength="1492.21" waitingTime="11.00" waitingCount="2" stopTime="0.00" timeLoss="26.62" rerouteNo="0" devices="tripinfo_OD87_NV.0" vType="NV" speedFactor="1.00" vaporized=""/>
    <tripinfo id="OD14_NV.0" depart="90.00" departLane="right3E3_0" departPos="5.10" departSpeed="10.00" departDelay="0.85" arrival="161.00" arrivalLane="E4right4_0" arrivalPos="286.40" arrivalSpeed="12.91" duration="71.00" routeLength="858.56" waitingTime="0.00" waitingCount="0" stopTime="0.00" timeLoss="6.88" rerouteNo="0" devices="tripinfo_OD14_NV.0" vType="NV" speedFactor="1.00" vaporized=""/>
    <tripinfo id="OD7_NV.0" depart="77.00" departLane="right3E3_0" departPos="5.10" departSpeed="10.00" departDelay="0.10" arrival="163.00" arrivalLane="E4top4_1" arrivalPos="286.40" arrivalSpeed="12.43" duration="86.00" routeLength="876.73" waitingTime="10.00" waitingCount="1" stopTime="0.00" timeLoss="21.72" rerouteNo="0" devices="tripinfo_OD7_NV.0" vType="NV" speedFactor="1.00" vaporized=""/>
    <tripinfo id="OD349_NV.0" depart="4.00" departLane="bottom2C0_0" departPos="5.10" departSpeed="10.00" departDelay="1.63" arrival="164.00" arrivalLane="E2right2_0" arrivalPos="286.40" arrivalSpeed="13.46" duration="160.00" routeLength="1755.87" waitingTime="12.00" waitingCount="2" stopTime="0.00" timeLoss="31.61" rerouteNo="0" devices="tripinfo_OD349_NV.0" vType="NV" speedFactor="1.00" vaporized=""/>
    <tripinfo id="OD148_RV.0" depart="18.00" departLane="left0A0_0" departPos="5.10" departSpeed="10.00" departDelay="0.00" arrival="165.00" arrivalLane="A0left0_1" arrivalPos="286.40" arrivalSpeed="13.41" duration="147.00" routeLength="1737.70" waitingTime="0.00" waitingCount="0" stopTime="0.00" timeLoss="19.15" rerouteNo="0" devices="tripinfo_OD148_RV.0" vType="RV" speedFactor="1.00" vaporized=""/>
    <tripinfo id="OD199_NV.0" depart="16.00" departLane="bottom1B0_0" departPos="5.10" departSpeed="10.00" departDelay="3.02" arrival="167.00" arrivalLane="E0bottom4_0" arrivalPos="286.40" arrivalSpeed="13.18" duration="151.00" routeLength="1458.56" waitingTime="22.00" waitingCount="2" stopTime="0.00" timeLoss="43.64" rerouteNo="0" devices="tripinfo_OD199_NV.0" vType="NV" speedFactor="1.00" vaporized=""/>
    <tripinfo id="OD52_NV.0" depart="59.00" departLane="right2E2_0" departPos="5.10" departSpeed="10.00" departDelay="0.01" arrival="170.00" arrivalLane="E4right4_0" arrivalPos="286.40" arrivalSpeed="13.21" duration="111.00" routeLength="1158.56" waitingTime="13.00" waitingCount="1" stopTime="0.00" timeLoss="25.78" rerouteNo="0" devices="tripinfo_OD52_NV.0" vType="NV" speedFactor="1.00" vaporized=""/>
    <tripinfo id="OD368_NV.1" depart="101.00" departLane="right1E1_0" departPos="5.10" departSpeed="10.00" departDelay="0.86" arrival="171.00" arrivalLane="E2right2_0" arrivalPos="286.40" arrivalSpeed="12.39" duration="70.00" routeLength="858.56" waitingTime="0.00" waitingCount="0" stopTime="0.00" timeLoss="6.74" rerouteNo="0" devices="tripinfo_OD368_NV.1" vType="NV" speedFactor="1.00" vaporized=""/>
    <tripinfo id="OD353_RV.1" depart="64.00" departLane="bottom2C0_0" departPos="5.10" departSpeed="10.00" departDelay="0.22" arrival="172.00" arrivalLane="E0right0_1" arrivalPos="286.40" arrivalSpeed="13.11" duration="108.00" routeLength="1176.73" waitingTime="7.00" waitingCount="1" stopTime="0.00" timeLoss="22.13" rerouteNo="0" devices="tripinfo_OD353_RV.1" vType="RV" speedFactor="1.00" vaporized=""/>
    <tripinfo id="OD310_NV.4" depart="101.00" departLane="left4A4_0" departPos="5.10" departSpeed="10.00" departDelay="0.28" arrival="172.00" arrivalLane="A3left3_0" arrivalPos="286.40" arrivalSpeed="12.56" duration="71.00" routeLength="858.56" waitingTime="0.00" waitingCount="0" stopTime="0.00" timeLoss="7.77" rerouteNo="0" devices="tripinfo_OD310_NV.4" vType="NV" speedFactor="1.00" vaporized=""/>
    <tripinfo id="OD200_RV.0" depart="56.00" departLane="bottom1B0_0" departPos="5.10" departSpeed="10.00" departDelay="0.93" arrival="174.00" arrivalLane="E0right0_1" arrivalPos="286.40" arrivalSpeed="13.01" duration="118.00" routeLength="1476.73" waitingTime="0.00" waitingCount="0" stopTime="0.00" timeLoss="10.42" rerouteNo="0" devices="tripinfo_OD200_RV.0" vType="RV" speedFactor="1.00" vaporized=""/>
    <tripinfo id="OD353_NV.0" depart="80.00" departLane="bottom2C0_0" departPos="5.10" departSpeed="10.00" departDelay="0.36" arrival="175.00" arrivalLane="E0right0_1" arrivalPos="286.40" arrivalSpeed="12.75" duration="95.00" routeLength="1176.73" waitingTime="0.00" waitingCount="0" stopTime="0.00" timeLoss="9.75" rerouteNo="0" devices="tripinfo_OD353_NV.0" vType="NV" speedFactor="1.00" vaporized=""/>
    <tripinfo id="OD76_NV.1" depart="104.00" departLane="right0E0_0" departPos="5.10" departSpeed="10.00" departDelay="0.91" arrival="175.00" arrivalLane="E1right1_0" arrivalPos="286.40" arrivalSpeed="13.55" duration="71.00" routeLength="858.56" waitingTime="0.00" waitingCount="0" stopTime="0.00" timeLoss="7.12" rerouteNo="0" devices="tripinfo_OD76_NV.1" vType="NV" speedFactor="1.00" vaporized=""/>
    <tripinfo id="OD333_NV.0" depart="74.00" departLane="bottom0A0_0" departPos="5.10" departSpeed="10.00" departDelay="1.16" arrival="176.00" arrivalLane="A1left1_2" arrivalPos="286.40" arrivalSpeed="13.62" duration="102.00" routeLength="892.21" waitingTime="22.00" waitingCount="2" stopTime="0.00" timeLoss="36.66" rerouteNo="0" devices="tripinfo_OD333_NV.0" vType="NV" speedFactor="1.00" vaporized=""/>
    <tripinfo id="OD131_NV.0" depart="80.00" departLane="left1A1_0" departPos="5.10" departSpeed="10.00" departDelay="0.33" arrival="176.00" arrivalLane="A0bottom0_1" arrivalPos="286.40" arrivalSpeed="13.03" duration="96.00" routeLength="876.73" waitingTime="22.00" waitingCount="1" stopTime="0.00" timeLoss="31.98" rerouteNo="0" devices="tripinfo_OD131_NV.0" vType="NV" speedFactor="1.00" vaporized=""/>
    <tripinfo id="OD192_NV.0" depart="106.00" departLane="bottom1B0_0" departPos="5.10" departSpeed="10.00" departDelay="0.31" arrival="176.00" arrivalLane="C0bottom2_0" arrivalPos="286.40" arrivalSpeed="13.72" duration="70.00" routeLength="858.56" waitingTime="0.00" waitingCount="0" stopTime="0.00" timeLoss="6.55" rerouteNo="0" devices="tripinfo_OD192_NV.0" vType="NV" speedFactor="1.00" vaporized=""/>
    <tripinfo id="OD319_RV.0" depart="9.00" departLane="left4A4_0" departPos="5.10" departSpeed="10.00" departDelay="3.58" arrival="178.00" arrivalLane="E4right4_1" arrivalPos="286.40" arrivalSpeed="13.68" duration="169.00" routeLength="1794.90" waitingTime="19.00" waitingCount="2" stopTime="0.00" timeLoss="39.77" rerouteNo="0" devices="tripinfo_OD319_RV.0" vType="RV" speedFactor="1.00" vaporized=""/>
    <tripinfo id="OD264_NV.0" depart="6.00" departLane="left3A3_0" departPos="5.10" departSpeed="10.00" departDelay="0.30" arrival="178.00" arrivalLane="A0bottom0_1" arrivalPos="286.40" arrivalSpeed="12.81" duration="172.00" routeLength="1476.73" waitingTime="43.00" waitingCount="3" stopTime="0.00" timeLoss="64.38" rerouteNo="0" devices="tripinfo_OD264_NV.0" vType="NV" speedFactor="1.00" vaporized=""/>
    <tripinfo id="OD244_NV.0" depart="9.00" departLane="top0A4_0" departPos="5.10" departSpeed="10.00" departDelay="1.64" arrival="178.00" arrivalLane="A2left2_0" arrivalPos="286.40" arrivalSpeed="13.74" duration="169.00" routeLength="1176.73" waitingTime="64.00" waitingCount="2" stopTime="0.00" timeLoss="83.13" rerouteNo="0" devices="tripinfo_OD244_NV.0" vType="NV" speedFactor="1.00" vaporized=""/>
    <tripinfo id="OD333_NV.1" depart="88.00" departLane="bottom0A0_0" departPos="5.10" departSpeed="10.00" departDelay="0.31" arrival="178.00" arrivalLane="A1left1_2" arrivalPos="286.40" arrivalSpeed="13.83" duration="90.00" routeLength="892.21" waitingTime="8.00" waitingCount="2" stopTime="0.00" timeLoss="24.80" rerouteNo="0" devices="tripinfo_OD333_NV.1" vType="NV" speedFactor="1.00" vaporized=""/>
    <tripinfo id="OD161_NV.0" depart="108.00" departLane="left2A2_0" departPos="5.10" departSpeed="10.00" departDelay="0.85" arrival="178.00" arrivalLane="A1left1_0" arrivalPos="286.40" arrivalSpeed="13.41" duration="70.00" routeLength="858.56" waitingTime="0.00" waitingCount="0" stopTime="0.00" timeLoss="6.63" rerouteNo="0" devices="tripinfo_OD161_NV.0" vType="NV" speedFactor="1.00" vaporized=""/>
    <tripinfo id="OD169_NV.1" depart="46.00" departLane="left2A2_0" departPos="5.10" departSpeed="10.00" departDelay="0.47" arrival="180.00" arrivalLane="A0bottom0_1" arrivalPos="286.40" arrivalSpeed="13.29" duration="134.00" routeLength="1176.73" waitingTime="28.00" waitingCount="2" stopTime="0.00" timeLoss="47.65" rerouteNo="0" devices="tripinfo_OD169_NV.1" vType="NV" speedFactor="1.00" vaporized=""/>
    <tripinfo id="OD167_RV.0" depart="86.00" departLane="left2A2_0" departPos="5.10" departSpeed="10.00" departDelay="0.76" arrival="181.00" arrivalLane="A0left0_0" arrivalPos="286.40" arrivalSpeed="12.92" duration="95.00" routeLength="1158.56" waitingTime="0.00" waitingCount="0" stopTime="0.00" timeLoss="9.97" rerouteNo="0" devices="tripinfo_OD167_RV.0" vType="RV" speedFactor="1.00" vaporized=""/>
    <tripinfo id="OD374_NV.0" depart="12.00" departLane="right1E1_0" departPos="5.10" departSpeed="10.00" departDelay="2.10" arrival="182.00" arrivalLane="E3right3_0" arrivalPos="286.40" arrivalSpeed="12.51" duration="170.00" routeLength="1158.56" waitingTime="71.00" waitingCount="1" stopTime="0.00" timeLoss="84.89" rerouteNo="0" devices="tripinfo_OD374_NV.0" vType="NV" speedFactor="1.00" vaporized=""/>
    <tripinfo id="OD169_NV.2" depart="80.00" departLane="left2A2_0" departPos="5.10" departSpeed="10.00" departDelay="0.28" arrival="182.00" arrivalLane="A0bottom0_1" arrivalPos="286.40" arrivalSpeed="13.06" duration="102.00" routeLength="1176.73" waitingTime="4.00" waitingCount="1" stopTime="0.00" timeLoss="15.93" rerouteNo="0" devices="tripinfo_OD169_NV.2" vType="NV" speedFactor="1.00" vaporized=""/>
    <tripinfo id="OD161_NV.1" depart="109.00" departLane="left2A2_0" departPos="5.10" departSpeed="10.00" departDelay="1.36" arrival="182.00" arrivalLane="A1left1_0" arrivalPos="286.40" arrivalSpeed="13.23" duration="73.00" routeLength="858.56" waitingTime="0.00" waitingCount="0" stopTime="0.00" timeLoss="8.59" rerouteNo="0" devices="tripinfo_OD161_NV.1" vType="NV" speedFactor="1.00" vaporized=""/>
    <tripinfo id="OD194_NV.0" depart="83.00" departLane="bottom1B0_0" departPos="5.10" departSpeed="10.00" departDelay="1.99" arrival="184.00" arrivalLane="D0bottom3_0" arrivalPos="286.40" arrivalSpeed="13.53" duration="101.00" routeLength="1158.56" waitingTime="3.00" waitingCount="1" stopTime="0.00" timeLoss="16.20" rerouteNo="0" devices="tripinfo_OD194_NV.0" vType="NV" speedFactor="1.00" vaporized=""/>
    <tripinfo id="OD317_RV.0" depart="6.00" departLane="left4A4_0" departPos="5.10" departSpeed="10.00" departDelay="1.73" arrival="187.00" arrivalLane="E3right3_1" arrivalPos="286.40" arrivalSpeed="13.85" duration="181.00" routeLength="2074.04" waitingTime="10.00" waitingCount="2" stopTime="0.00" timeLoss="29.45" rerouteNo="0" devices="tripinfo_OD317_RV.0" vType="RV" speedFactor="1.00" vaporized=""/>
    <tripinfo id="OD370_NV.0" depart="29.00" departLane="right1E1_0" departPos="5.10" departSpeed="10.00" departDelay="0.78" arrival="187.00" arrivalLane="E0bottom4_1" arrivalPos="286.40" arrivalSpeed="12.93" duration="158.00" routeLength="892.21" waitingTime="80.00" waitingCount="2" stopTime="0.00" timeLoss="92.74" rerouteNo="0" devices="tripinfo_OD370_NV.0" vType="NV" speedFactor="1.00" vaporized=""/>
    <tripinfo id="OD286_NV.0" depart="117.00" departLane="top1B4_0" departPos="5.10" departSpeed="10.00" departDelay="0.84" arrival="188.00" arrivalLane="A4top0_0" arrivalPos="286.40" arrivalSpeed="12.97" duration="71.00" routeLength="858.56" waitingTime="0.00" waitingCount="0" stopTime="0.00" timeLoss="7.81" rerouteNo="0" devices="tripinfo_OD286_NV.0" vType="NV" speedFactor="1.00" vaporized=""/>
    <tripinfo id="OD38_NV.0" depart="8.00" departLane="right2E2_0" departPos="5.10" departSpeed="10.00" departDelay="1.45" arrival="189.00" arrivalLane="E1right1_2" arrivalPos="286.40" arrivalSpeed="12.69" duration="181.00" routeLength="889.52" waitingTime="103.00" waitingCount="2" stopTime="0.00" timeLoss="115.22" rerouteNo="0" devices="tripinfo_OD38_NV.0" vType="NV" speedFactor="1.00" vaporized=""/>
    <tripinfo id="OD252_RV.0" depart="10.00" departLane="left3A3_0" departPos="5.10" departSpeed="10.00" departDelay="0.17" arrival="189.00" arrivalLane="C4top2_1" arrivalPos="286.40" arrivalSpeed="12.88" duration="179.00" routeLength="1492.21" waitingTime="46.00" waitingCount="3" stopTime="0.00" timeLoss="70.79" rerouteNo="0" devices="tripinfo_OD252_RV.0" vType="RV" speedFactor="1.00" vaporized=""/>
    <tripinfo id="OD190_NV.0" depart="14.00" departLane="bottom1B0_0" departPos="5.10" departSpeed="10.00" departDelay="1.53" arrival="189.00" arrivalLane="E1right1_0" arrivalPos="286.40" arrivalSpeed="13.42" duration="175.00" routeLength="1755.87" waitingTime="22.00" waitingCount="2" stopTime="0.00" timeLoss="45.40" rerouteNo="0" devices="tripinfo_OD190_NV.0" vType="NV" speedFactor="1.00" vaporized=""/>