<?xml version="1.0" encoding="UTF-8"?>

<!-- generated on 2025-02-16 07:41:38 by Eclipse SUMO sumo Version 1.20.0
<configuration xmlns:xsi="http://www.w3.org/2001/XMLSchema-instance" xsi:noNamespaceSchemaLocation="http://sumo.dlr.de/xsd/sumoConfiguration.xsd">

    <input>
        <net-file value="./envs/5x5/5x5.net.xml"/>
        <route-files value="./envs/5x5/Demand_20.rou.xml"/>
    </input>

    <output>
        <tripinfo-output value="./online_train/5x5\online_train_SACTF-mask-onlySV_multi_agents/tripinfo/tripinfo_ep95.xml"/>
    </output>

    <time>
        <begin value="0"/>
    </time>

    <processing>
        <time-to-teleport value="-1"/>
        <waiting-time-memory value="1800"/>
    </processing>

    <report>
        <no-step-log value="true"/>
    </report>

    <traci_server>
        <remote-port value="59107"/>
    </traci_server>

</configuration>
-->

<tripinfos xmlns:xsi="http://www.w3.org/2001/XMLSchema-instance" xsi:noNamespaceSchemaLocation="http://sumo.dlr.de/xsd/tripinfo_file.xsd">
    <tripinfo id="OD305_NV.0" depart="11.00" departLane="left4A4_0" departPos="5.10" departSpeed="10.00" departDelay="1.44" arrival="58.00" arrivalLane="A4top0_2" arrivalPos="286.40" arrivalSpeed="12.94" duration="47.00" routeLength="592.21" waitingTime="0.00" waitingCount="0" stopTime="0.00" timeLoss="3.23" rerouteNo="0" devices="tripinfo_OD305_NV.0" vType="NV" speedFactor="1.00" vaporized=""/>
    <tripinfo id="OD310_NV.0" depart="4.00" departLane="left4A4_0" departPos="5.10" departSpeed="10.00" departDelay="1.48" arrival="76.00" arrivalLane="A3left3_0" arrivalPos="286.40" arrivalSpeed="12.70" duration="72.00" routeLength="858.56" waitingTime="0.00" waitingCount="0" stopTime="0.00" timeLoss="7.42" rerouteNo="0" devices="tripinfo_OD310_NV.0" vType="NV" speedFactor="1.00" vaporized=""/>
    <tripinfo id="OD310_NV.1" depart="8.00" departLane="left4A4_0" departPos="5.10" departSpeed="10.00" departDelay="3.20" arrival="79.00" arrivalLane="A3left3_0" arrivalPos="286.40" arrivalSpeed="12.64" duration="71.00" routeLength="858.56" waitingTime="0.00" waitingCount="0" stopTime="0.00" timeLoss="7.51" rerouteNo="0" devices="tripinfo_OD310_NV.1" vType="NV" speedFactor="1.00" vaporized=""/>
    <tripinfo id="OD102_NV.0" depart="37.00" departLane="right4E4_0" departPos="5.10" departSpeed="10.00" departDelay="0.87" arrival="84.00" arrivalLane="E4top4_0" arrivalPos="286.40" arrivalSpeed="13.14" duration="47.00" routeLength="576.73" waitingTime="0.00" waitingCount="0" stopTime="0.00" timeLoss="4.39" rerouteNo="0" devices="tripinfo_OD102_NV.0" vType="NV" speedFactor="1.00" vaporized=""/>
    <tripinfo id="OD129_NV.0" depart="19.00" departLane="left1A1_0" departPos="5.10" departSpeed="10.00" departDelay="0.11" arrival="89.00" arrivalLane="A0left0_0" arrivalPos="286.40" arrivalSpeed="12.58" duration="70.00" routeLength="858.56" waitingTime="0.00" waitingCount="0" stopTime="0.00" timeLoss="6.63" rerouteNo="0" devices="tripinfo_OD129_NV.0" vType="NV" speedFactor="1.00" vaporized=""/>
    <tripinfo id="OD38_NV.0" depart="8.00" departLane="right2E2_0" departPos="5.10" departSpeed="10.00" departDelay="1.45" arrival="92.00" arrivalLane="E1right1_2" arrivalPos="286.40" arrivalSpeed="13.74" duration="84.00" routeLength="889.52" waitingTime="9.00" waitingCount="1" stopTime="0.00" timeLoss="17.85" rerouteNo="0" devices="tripinfo_OD38_NV.0" vType="NV" speedFactor="1.00" vaporized=""/>
    <tripinfo id="OD284_NV.0" depart="22.00" departLane="top4E4_0" departPos="5.10" departSpeed="10.00" departDelay="1.14" arrival="92.00" arrivalLane="D4top3_0" arrivalPos="286.40" arrivalSpeed="13.21" duration="70.00" routeLength="858.56" waitingTime="0.00" waitingCount="0" stopTime="0.00" timeLoss="6.35" rerouteNo="0" devices="tripinfo_OD284_NV.0" vType="NV" speedFactor="1.00" vaporized=""/>
    <tripinfo id="OD45_NV.0" depart="6.00" departLane="right2E2_0" departPos="5.10" departSpeed="10.00" departDelay="0.70" arrival="100.00" arrivalLane="E4top4_1" arrivalPos="286.40" arrivalSpeed="13.81" duration="94.00" routeLength="1176.73" waitingTime="0.00" waitingCount="0" stopTime="0.00" timeLoss="8.12" rerouteNo="0" devices="tripinfo_OD45_NV.0" vType="NV" speedFactor="1.00" vaporized=""/>
    <tripinfo id="OD169_RV.0" depart="7.00" departLane="left2A2_0" departPos="5.10" departSpeed="10.00" departDelay="0.60" arrival="100.00" arrivalLane="A0bottom0_1" arrivalPos="286.40" arrivalSpeed="12.49" duration="93.00" routeLength="1176.73" waitingTime="0.00" waitingCount="0" stopTime="0.00" timeLoss="7.52" rerouteNo="0" devices="tripinfo_OD169_RV.0" vType="RV" speedFactor="1.00" vaporized=""/>
    <tripinfo id="OD370_NV.0" depart="29.00" departLane="right1E1_0" departPos="5.10" departSpeed="10.00" departDelay="0.78" arrival="101.00" arrivalLane="E0bottom4_1" arrivalPos="286.40" arrivalSpeed="13.68" duration="72.00" routeLength="892.21" waitingTime="0.00" waitingCount="0" stopTime="0.00" timeLoss="6.77" rerouteNo="0" devices="tripinfo_OD370_NV.0" vType="NV" speedFactor="1.00" vaporized=""/>
    <tripinfo id="OD129_RV.0" depart="32.00" departLane="left1A1_0" departPos="5.10" departSpeed="10.00" departDelay="0.10" arrival="102.00" arrivalLane="A0left0_0" arrivalPos="286.40" arrivalSpeed="12.95" duration="70.00" routeLength="858.56" waitingTime="0.00" waitingCount="0" stopTime="0.00" timeLoss="6.53" rerouteNo="0" devices="tripinfo_OD129_RV.0" vType="RV" speedFactor="1.00" vaporized=""/>
    <tripinfo id="OD291_NV.0" depart="3.00" departLane="top1B4_0" departPos="5.10" departSpeed="10.00" departDelay="0.51" arrival="104.00" arrivalLane="A3left3_1" arrivalPos="286.40" arrivalSpeed="12.39" duration="101.00" routeLength="1176.73" waitingTime="1.00" waitingCount="1" stopTime="0.00" timeLoss="15.69" rerouteNo="0" devices="tripinfo_OD291_NV.0" vType="NV" speedFactor="1.00" vaporized=""/>
    <tripinfo id="OD205_NV.0" depart="12.00" departLane="bottom1B0_0" departPos="5.10" departSpeed="10.00" departDelay="2.02" arrival="105.00" arrivalLane="A0left0_1" arrivalPos="286.40" arrivalSpeed="13.36" duration="93.00" routeLength="892.21" waitingTime="19.00" waitingCount="1" stopTime="0.00" timeLoss="27.86" rerouteNo="0" devices="tripinfo_OD205_NV.0" vType="NV" speedFactor="1.00" vaporized=""/>
    <tripinfo id="OD374_NV.0" depart="12.00" departLane="right1E1_0" departPos="5.10" departSpeed="10.00" departDelay="2.10" arrival="106.00" arrivalLane="E3right3_0" arrivalPos="286.40" arrivalSpeed="13.12" duration="94.00" routeLength="1158.56" waitingTime="0.00" waitingCount="0" stopTime="0.00" timeLoss="8.84" rerouteNo="0" devices="tripinfo_OD374_NV.0" vType="NV" speedFactor="1.00" vaporized=""/>
    <tripinfo id="OD113_NV.0" depart="35.00" departLane="right4E4_0" departPos="5.10" departSpeed="10.00" departDelay="0.56" arrival="108.00" arrivalLane="D4top3_0" arrivalPos="286.40" arrivalSpeed="13.55" duration="73.00" routeLength="876.73" waitingTime="0.00" waitingCount="0" stopTime="0.00" timeLoss="8.84" rerouteNo="0" devices="tripinfo_OD113_NV.0" vType="NV" speedFactor="1.00" vaporized=""/>
    <tripinfo id="OD310_NV.2" depart="38.00" departLane="left4A4_0" departPos="5.10" departSpeed="10.00" departDelay="0.76" arrival="109.00" arrivalLane="A3left3_0" arrivalPos="286.40" arrivalSpeed="13.26" duration="71.00" routeLength="858.56" waitingTime="0.00" waitingCount="0" stopTime="0.00" timeLoss="7.04" rerouteNo="0" devices="tripinfo_OD310_NV.2" vType="NV" speedFactor="1.00" vaporized=""/>
    <tripinfo id="OD176_NV.0" depart="40.00" departLane="top3D4_0" departPos="5.10" departSpeed="10.00" departDelay="0.16" arrival="111.00" arrivalLane="C4top2_0" arrivalPos="286.40" arrivalSpeed="12.85" duration="71.00" routeLength="858.56" waitingTime="0.00" waitingCount="0" stopTime="0.00" timeLoss="6.98" rerouteNo="0" devices="tripinfo_OD176_NV.0" vType="NV" speedFactor="1.00" vaporized=""/>
    <tripinfo id="OD353_RV.0" depart="6.00" departLane="bottom2C0_0" departPos="5.10" departSpeed="10.00" departDelay="3.40" arrival="114.00" arrivalLane="E0right0_1" arrivalPos="286.40" arrivalSpeed="12.79" duration="108.00" routeLength="1176.73" waitingTime="12.00" waitingCount="1" stopTime="0.00" timeLoss="22.27" rerouteNo="0" devices="tripinfo_OD353_RV.0" vType="RV" speedFactor="1.00" vaporized=""/>
    <tripinfo id="OD158_NV.0" depart="4.00" departLane="left2A2_0" departPos="5.10" departSpeed="10.00" departDelay="0.74" arrival="118.00" arrivalLane="A3left3_2" arrivalPos="286.40" arrivalSpeed="12.69" duration="114.00" routeLength="889.52" waitingTime="38.00" waitingCount="1" stopTime="0.00" timeLoss="48.55" rerouteNo="0" devices="tripinfo_OD158_NV.0" vType="NV" speedFactor="1.00" vaporized=""/>
    <tripinfo id="OD65_RV.0" depart="48.00" departLane="bottom3D0_0" departPos="5.10" departSpeed="10.00" departDelay="1.05" arrival="118.00" arrivalLane="E0bottom4_0" arrivalPos="286.40" arrivalSpeed="13.76" duration="70.00" routeLength="858.56" waitingTime="0.00" waitingCount="0" stopTime="0.00" timeLoss="6.46" rerouteNo="0" devices="tripinfo_OD65_RV.0" vType="RV" speedFactor="1.00" vaporized=""/>
    <tripinfo id="OD244_NV.0" depart="9.00" departLane="top0A4_0" departPos="5.10" departSpeed="10.00" departDelay="1.64" arrival="119.00" arrivalLane="A2left2_0" arrivalPos="286.40" arrivalSpeed="12.59" duration="110.00" routeLength="1176.73" waitingTime="7.00" waitingCount="1" stopTime="0.00" timeLoss="24.29" rerouteNo="0" devices="tripinfo_OD244_NV.0" vType="NV" speedFactor="1.00" vaporized=""/>
    <tripinfo id="OD257_RV.0" depart="12.00" departLane="left3A3_0" departPos="5.10" departSpeed="10.00" departDelay="1.82" arrival="119.00" arrivalLane="A1left1_0" arrivalPos="286.40" arrivalSpeed="13.63" duration="107.00" routeLength="1158.56" waitingTime="8.00" waitingCount="1" stopTime="0.00" timeLoss="21.57" rerouteNo="0" devices="tripinfo_OD257_RV.0" vType="RV" speedFactor="1.00" vaporized=""/>
    <tripinfo id="OD50_NV.0" depart="49.00" departLane="right2E2_0" departPos="5.10" departSpeed="10.00" departDelay="0.93" arrival="119.00" arrivalLane="E3right3_0" arrivalPos="286.40" arrivalSpeed="13.85" duration="70.00" routeLength="858.56" waitingTime="0.00" waitingCount="0" stopTime="0.00" timeLoss="6.60" rerouteNo="0" devices="tripinfo_OD50_NV.0" vType="NV" speedFactor="1.00" vaporized=""/>
    <tripinfo id="OD158_NV.1" depart="13.00" departLane="left2A2_0" departPos="5.10" departSpeed="10.00" departDelay="1.11" arrival="120.00" arrivalLane="A3left3_2" arrivalPos="286.40" arrivalSpeed="13.64" duration="107.00" routeLength="889.52" waitingTime="32.00" waitingCount="1" stopTime="0.00" timeLoss="41.35" rerouteNo="0" devices="tripinfo_OD158_NV.1" vType="NV" speedFactor="1.00" vaporized=""/>
    <tripinfo id="OD354_NV.0" depart="10.00" departLane="bottom2C0_0" departPos="5.10" departSpeed="10.00" departDelay="0.22" arrival="121.00" arrivalLane="B0bottom1_2" arrivalPos="286.40" arrivalSpeed="13.64" duration="111.00" routeLength="889.52" waitingTime="35.00" waitingCount="1" stopTime="0.00" timeLoss="45.11" rerouteNo="0" devices="tripinfo_OD354_NV.0" vType="NV" speedFactor="1.00" vaporized=""/>
    <tripinfo id="OD284_NV.1" depart="54.00" departLane="top4E4_0" departPos="5.10" departSpeed="10.00" departDelay="0.77" arrival="124.00" arrivalLane="D4top3_0" arrivalPos="286.40" arrivalSpeed="13.34" duration="70.00" routeLength="858.56" waitingTime="0.00" waitingCount="0" stopTime="0.00" timeLoss="6.75" rerouteNo="0" devices="tripinfo_OD284_NV.1" vType="NV" speedFactor="1.00" vaporized=""/>
    <tripinfo id="OD65_NV.0" depart="54.00" departLane="bottom3D0_0" departPos="5.10" departSpeed="10.00" departDelay="0.88" arrival="125.00" arrivalLane="E0bottom4_0" arrivalPos="286.40" arrivalSpeed="13.35" duration="71.00" routeLength="858.56" waitingTime="0.00" waitingCount="0" stopTime="0.00" timeLoss="7.73" rerouteNo="0" devices="tripinfo_OD65_NV.0" vType="NV" speedFactor="1.00" vaporized=""/>
    <tripinfo id="OD169_NV.0" depart="17.00" departLane="left2A2_0" departPos="5.10" departSpeed="10.00" departDelay="0.59" arrival="127.00" arrivalLane="A0bottom0_1" arrivalPos="286.40" arrivalSpeed="13.19" duration="110.00" routeLength="1176.73" waitingTime="11.00" waitingCount="1" stopTime="0.00" timeLoss="24.69" rerouteNo="0" devices="tripinfo_OD169_NV.0" vType="NV" speedFactor="1.00" vaporized=""/>
    <tripinfo id="OD18_NV.0" depart="11.00" departLane="right3E3_0" departPos="5.10" departSpeed="10.00" departDelay="0.23" arrival="130.00" arrivalLane="D4top3_0" arrivalPos="286.40" arrivalSpeed="13.78" duration="119.00" routeLength="1155.87" waitingTime="20.00" waitingCount="1" stopTime="0.00" timeLoss="33.46" rerouteNo="0" devices="tripinfo_OD18_NV.0" vType="NV" speedFactor="1.00" vaporized=""/>
    <tripinfo id="OD365_NV.0" depart="7.00" departLane="right1E1_0" departPos="5.10" departSpeed="10.00" departDelay="0.05" arrival="131.00" arrivalLane="D0bottom3_1" arrivalPos="286.40" arrivalSpeed="13.43" duration="124.00" routeLength="1192.21" waitingTime="17.00" waitingCount="2" stopTime="0.00" timeLoss="37.15" rerouteNo="0" devices="tripinfo_OD365_NV.0" vType="NV" speedFactor="1.00" vaporized=""/>
    <tripinfo id="OD370_NV.1" depart="31.00" departLane="right1E1_0" departPos="5.10" departSpeed="10.00" departDelay="1.52" arrival="133.00" arrivalLane="E0bottom4_1" arrivalPos="286.40" arrivalSpeed="13.24" duration="102.00" routeLength="892.21" waitingTime="25.00" waitingCount="1" stopTime="0.00" timeLoss="36.47" rerouteNo="0" devices="tripinfo_OD370_NV.1" vType="NV" speedFactor="1.00" vaporized=""/>
    <tripinfo id="OD50_NV.1" depart="60.00" departLane="right2E2_0" departPos="5.10" departSpeed="10.00" departDelay="0.59" arrival="133.00" arrivalLane="E3right3_0" arrivalPos="286.40" arrivalSpeed="13.63" duration="73.00" routeLength="858.56" waitingTime="0.00" waitingCount="0" stopTime="0.00" timeLoss="8.90" rerouteNo="0" devices="tripinfo_OD50_NV.1" vType="NV" speedFactor="1.00" vaporized=""/>
    <tripinfo id="OD184_NV.0" depart="25.00" departLane="top3D4_0" departPos="5.10" departSpeed="10.00" departDelay="5.03" arrival="136.00" arrivalLane="B4top1_0" arrivalPos="286.40" arrivalSpeed="12.54" duration="111.00" routeLength="1158.56" waitingTime="11.00" waitingCount="1" stopTime="0.00" timeLoss="25.64" rerouteNo="0" devices="tripinfo_OD184_NV.0" vType="NV" speedFactor="1.00" vaporized=""/>
    <tripinfo id="OD76_NV.0" depart="65.00" departLane="right0E0_0" departPos="5.10" departSpeed="10.00" departDelay="0.41" arrival="136.00" arrivalLane="E1right1_0" arrivalPos="286.40" arrivalSpeed="12.94" duration="71.00" routeLength="858.56" waitingTime="0.00" waitingCount="0" stopTime="0.00" timeLoss="7.10" rerouteNo="0" devices="tripinfo_OD76_NV.0" vType="NV" speedFactor="1.00" vaporized=""/>
    <tripinfo id="OD184_RV.0" depart="29.00" departLane="top3D4_0" departPos="5.10" departSpeed="10.00" departDelay="1.79" arrival="139.00" arrivalLane="B4top1_0" arrivalPos="286.40" arrivalSpeed="13.35" duration="110.00" routeLength="1158.56" waitingTime="9.00" waitingCount="1" stopTime="0.00" timeLoss="24.11" rerouteNo="0" devices="tripinfo_OD184_RV.0" vType="RV" speedFactor="1.00" vaporized=""/>
    <tripinfo id="OD257_NV.0" depart="38.00" departLane="left3A3_0" departPos="5.10" departSpeed="10.00" departDelay="0.13" arrival="142.00" arrivalLane="A1left1_0" arrivalPos="286.40" arrivalSpeed="13.05" duration="104.00" routeLength="1158.56" waitingTime="7.00" waitingCount="1" stopTime="0.00" timeLoss="18.85" rerouteNo="0" devices="tripinfo_OD257_NV.0" vType="NV" speedFactor="1.00" vaporized=""/>
    <tripinfo id="OD50_NV.2" depart="71.00" departLane="right2E2_0" departPos="5.10" departSpeed="10.00" departDelay="0.74" arrival="142.00" arrivalLane="E3right3_0" arrivalPos="286.40" arrivalSpeed="13.40" duration="71.00" routeLength="858.56" waitingTime="0.00" waitingCount="0" stopTime="0.00" timeLoss="7.17" rerouteNo="0" devices="tripinfo_OD50_NV.2" vType="NV" speedFactor="1.00" vaporized=""/>
    <tripinfo id="OD369_NV.0" depart="5.00" departLane="right1E1_0" departPos="5.10" departSpeed="10.00" departDelay="2.04" arrival="143.00" arrivalLane="E4top4_1" arrivalPos="286.40" arrivalSpeed="13.23" duration="138.00" routeLength="1476.73" waitingTime="13.00" waitingCount="1" stopTime="0.00" timeLoss="30.76" rerouteNo="0" devices="tripinfo_OD369_NV.0" vType="NV" speedFactor="1.00" vaporized=""/>
    <tripinfo id="OD199_NV.0" depart="16.00" departLane="bottom1B0_0" departPos="5.10" departSpeed="10.00" departDelay="3.02" arrival="144.00" arrivalLane="E0bottom4_0" arrivalPos="286.40" arrivalSpeed="12.49" duration="128.00" routeLength="1458.56" waitingTime="2.00" waitingCount="1" stopTime="0.00" timeLoss="20.77" rerouteNo="0" devices="tripinfo_OD199_NV.0" vType="NV" speedFactor="1.00" vaporized=""/>
    <tripinfo id="OD21_RV.0" depart="16.00" departLane="top2C4_0" departPos="5.10" departSpeed="10.00" departDelay="0.63" arrival="145.00" arrivalLane="A4left4_1" arrivalPos="286.40" arrivalSpeed="12.46" duration="129.00" routeLength="1176.73" waitingTime="25.00" waitingCount="2" stopTime="0.00" timeLoss="43.50" rerouteNo="0" devices="tripinfo_OD21_RV.0" vType="RV" speedFactor="1.00" vaporized=""/>
    <tripinfo id="OD288_RV.0" depart="59.00" departLane="top1B4_0" departPos="5.10" departSpeed="10.00" departDelay="1.65" arrival="147.00" arrivalLane="A4left4_1" arrivalPos="286.40" arrivalSpeed="13.45" duration="88.00" routeLength="876.73" waitingTime="10.00" waitingCount="1" stopTime="0.00" timeLoss="23.94" rerouteNo="0" devices="tripinfo_OD288_RV.0" vType="RV" speedFactor="1.00" vaporized=""/>
    <tripinfo id="OD176_NV.1" depart="76.00" departLane="top3D4_0" departPos="5.10" departSpeed="10.00" departDelay="1.17" arrival="147.00" arrivalLane="C4top2_0" arrivalPos="286.40" arrivalSpeed="13.09" duration="71.00" routeLength="858.56" waitingTime="0.00" waitingCount="0" stopTime="0.00" timeLoss="7.51" rerouteNo="0" devices="tripinfo_OD176_NV.1" vType="NV" speedFactor="1.00" vaporized=""/>
    <tripinfo id="OD7_NV.0" depart="77.00" departLane="right3E3_0" departPos="5.10" departSpeed="10.00" departDelay="0.10" arrival="147.00" arrivalLane="E4top4_1" arrivalPos="286.40" arrivalSpeed="13.51" duration="70.00" routeLength="876.73" waitingTime="0.00" waitingCount="0" stopTime="0.00" timeLoss="5.53" rerouteNo="0" devices="tripinfo_OD7_NV.0" vType="NV" speedFactor="1.00" vaporized=""/>
    <tripinfo id="OD279_NV.0" depart="78.00" departLane="top4E4_0" departPos="5.10" departSpeed="10.00" departDelay="0.76" arrival="147.00" arrivalLane="E3right3_2" arrivalPos="286.40" arrivalSpeed="13.59" duration="69.00" routeLength="892.21" waitingTime="0.00" waitingCount="0" stopTime="0.00" timeLoss="4.00" rerouteNo="0" devices="tripinfo_OD279_NV.0" vType="NV" speedFactor="1.00" vaporized=""/>
    <tripinfo id="OD21_RV.1" depart="36.00" departLane="top2C4_0" departPos="5.10" departSpeed="10.00" departDelay="0.64" arrival="149.00" arrivalLane="A4left4_1" arrivalPos="286.40" arrivalSpeed="13.66" duration="113.00" routeLength="1176.73" waitingTime="9.00" waitingCount="1" stopTime="0.00" timeLoss="27.15" rerouteNo="0" devices="tripinfo_OD21_RV.1" vType="RV" speedFactor="1.00" vaporized=""/>
    <tripinfo id="OD368_NV.0" depart="78.00" departLane="right1E1_0" departPos="5.10" departSpeed="10.00" departDelay="0.11" arrival="149.00" arrivalLane="E2right2_0" arrivalPos="286.40" arrivalSpeed="12.45" duration="71.00" routeLength="858.56" waitingTime="0.00" waitingCount="0" stopTime="0.00" timeLoss="7.79" rerouteNo="0" devices="tripinfo_OD368_NV.0" vType="NV" speedFactor="1.00" vaporized=""/>
    <tripinfo id="OD131_NV.0" depart="80.00" departLane="left1A1_0" departPos="5.10" departSpeed="10.00" departDelay="0.33" arrival="150.00" arrivalLane="A0bottom0_1" arrivalPos="286.40" arrivalSpeed="13.23" duration="70.00" routeLength="876.73" waitingTime="0.00" waitingCount="0" stopTime="0.00" timeLoss="5.07" rerouteNo="0" devices="tripinfo_OD131_NV.0" vType="NV" speedFactor="1.00" vaporized=""/>
    <tripinfo id="OD310_NV.3" depart="82.00" departLane="left4A4_0" departPos="5.10" departSpeed="10.00" departDelay="0.90" arrival="152.00" arrivalLane="A3left3_0" arrivalPos="286.40" arrivalSpeed="13.43" duration="70.00" routeLength="858.56" waitingTime="0.00" waitingCount="0" stopTime="0.00" timeLoss="6.43" rerouteNo="0" devices="tripinfo_OD310_NV.3" vType="NV" speedFactor="1.00" vaporized=""/>
    <tripinfo id="OD264_NV.0" depart="6.00" departLane="left3A3_0" departPos="5.10" departSpeed="10.00" departDelay="0.30" arrival="155.00" arrivalLane="A0bottom0_1" arrivalPos="286.40" arrivalSpeed="13.55" duration="149.00" routeLength="1476.73" waitingTime="25.00" waitingCount="2" stopTime="0.00" timeLoss="41.77" rerouteNo="0" devices="tripinfo_OD264_NV.0" vType="NV" speedFactor="1.00" vaporized=""/>
    <tripinfo id="OD374_NV.1" depart="60.00" departLane="right1E1_0" departPos="5.10" departSpeed="10.00" departDelay="0.36" arrival="155.00" arrivalLane="E3right3_0" arrivalPos="286.40" arrivalSpeed="13.39" duration="95.00" routeLength="1158.56" waitingTime="0.00" waitingCount="0" stopTime="0.00" timeLoss="9.81" rerouteNo="0" devices="tripinfo_OD374_NV.1" vType="NV" speedFactor="1.00" vaporized=""/>
    <tripinfo id="OD320_NV.0" depart="28.00" departLane="left4A4_0" departPos="5.10" departSpeed="10.00" departDelay="1.49" arrival="156.00" arrivalLane="A2left2_0" arrivalPos="286.40" arrivalSpeed="13.15" duration="128.00" routeLength="1158.56" waitingTime="26.00" waitingCount="1" stopTime="0.00" timeLoss="42.30" rerouteNo="0" devices="tripinfo_OD320_NV.0" vType="NV" speedFactor="1.00" vaporized=""/>
    <tripinfo id="OD301_NV.0" depart="1.00" departLane="top1B4_0" departPos="5.10" departSpeed="10.00" departDelay="0.26" arrival="158.00" arrivalLane="A2left2_0" arrivalPos="286.40" arrivalSpeed="13.22" duration="157.00" routeLength="1455.87" waitingTime="29.00" waitingCount="2" stopTime="0.00" timeLoss="50.07" rerouteNo="0" devices="tripinfo_OD301_NV.0" vType="NV" speedFactor="1.00" vaporized=""/>
    <tripinfo id="OD169_NV.1" depart="46.00" departLane="left2A2_0" departPos="5.10" departSpeed="10.00" departDelay="0.47" arrival="158.00" arrivalLane="A0bottom0_1" arrivalPos="286.40" arrivalSpeed="12.65" duration="112.00" routeLength="1176.73" waitingTime="13.00" waitingCount="1" stopTime="0.00" timeLoss="26.26" rerouteNo="0" devices="tripinfo_OD169_NV.1" vType="NV" speedFactor="1.00" vaporized=""/>
    <tripinfo id="OD38_NV.1" depart="64.00" departLane="right2E2_0" departPos="5.10" departSpeed="10.00" departDelay="0.00" arrival="159.00" arrivalLane="E1right1_2" arrivalPos="286.40" arrivalSpeed="13.20" duration="95.00" routeLength="889.52" waitingTime="17.00" waitingCount="2" stopTime="0.00" timeLoss="29.27" rerouteNo="0" devices="tripinfo_OD38_NV.1" vType="NV" speedFactor="1.00" vaporized=""/>
    <tripinfo id="OD252_RV.0" depart="10.00" departLane="left3A3_0" departPos="5.10" departSpeed="10.00" departDelay="0.17" arrival="160.00" arrivalLane="C4top2_1" arrivalPos="286.40" arrivalSpeed="12.83" duration="150.00" routeLength="1492.21" waitingTime="19.00" waitingCount="2" stopTime="0.00" timeLoss="42.05" rerouteNo="0" devices="tripinfo_OD252_RV.0" vType="RV" speedFactor="1.00" vaporized=""/>
    <tripinfo id="OD14_NV.0" depart="90.00" departLane="right3E3_0" departPos="5.10" departSpeed="10.00" departDelay="0.85" arrival="160.00" arrivalLane="E4right4_0" arrivalPos="286.40" arrivalSpeed="12.90" duration="70.00" routeLength="858.56" waitingTime="0.00" waitingCount="0" stopTime="0.00" timeLoss="6.43" rerouteNo="0" devices="tripinfo_OD14_NV.0" vType="NV" speedFactor="1.00" vaporized=""/>
    <tripinfo id="OD149_NV.0" depart="7.00" departLane="left0A0_0" departPos="5.10" departSpeed="10.00" departDelay="0.02" arrival="161.00" arrivalLane="A2left2_2" arrivalPos="286.40" arrivalSpeed="12.52" duration="154.00" routeLength="1189.52" waitingTime="51.00" waitingCount="2" stopTime="0.00" timeLoss="66.96" rerouteNo="0" devices="tripinfo_OD149_NV.0" vType="NV" speedFactor="1.00" vaporized=""/>
    <tripinfo id="OD178_NV.0" depart="10.00" departLane="top3D4_0" departPos="5.10" departSpeed="10.00" departDelay="0.60" arrival="161.00" arrivalLane="E2right2_2" arrivalPos="286.40" arrivalSpeed="13.55" duration="151.00" routeLength="1471.35" waitingTime="26.00" waitingCount="2" stopTime="0.00" timeLoss="43.03" rerouteNo="0" devices="tripinfo_OD178_NV.0" vType="NV" speedFactor="1.00" vaporized=""/>
    <tripinfo id="OD244_NV.1" depart="45.00" departLane="top0A4_0" departPos="5.10" departSpeed="10.00" departDelay="0.91" arrival="162.00" arrivalLane="A2left2_0" arrivalPos="286.40" arrivalSpeed="12.41" duration="117.00" routeLength="1176.73" waitingTime="10.00" waitingCount="2" stopTime="0.00" timeLoss="31.17" rerouteNo="0" devices="tripinfo_OD244_NV.1" vType="NV" speedFactor="1.00" vaporized=""/>
    <tripinfo id="OD178_NV.1" depart="21.00" departLane="top3D4_0" departPos="5.10" departSpeed="10.00" departDelay="2.39" arrival="163.00" arrivalLane="E2right2_2" arrivalPos="286.40" arrivalSpeed="12.78" duration="142.00" routeLength="1471.35" waitingTime="12.00" waitingCount="2" stopTime="0.00" timeLoss="34.06" rerouteNo="0" devices="tripinfo_OD178_NV.1" vType="NV" speedFactor="1.00" vaporized=""/>
    <tripinfo id="OD149_NV.1" depart="40.00" departLane="left0A0_0" departPos="5.10" departSpeed="10.00" departDelay="0.33" arrival="163.00" arrivalLane="A2left2_2" arrivalPos="286.40" arrivalSpeed="12.74" duration="123.00" routeLength="1189.52" waitingTime="24.00" waitingCount="1" stopTime="0.00" timeLoss="35.28" rerouteNo="0" devices="tripinfo_OD149_NV.1" vType="NV" speedFactor="1.00" vaporized=""/>
    <tripinfo id="OD206_NV.0" depart="19.00" departLane="bottom1B0_0" departPos="5.10" departSpeed="10.00" departDelay="0.46" arrival="165.00" arrivalLane="A2left2_2" arrivalPos="286.40" arrivalSpeed="13.57" duration="146.00" routeLength="1471.35" waitingTime="12.00" waitingCount="1" stopTime="0.00" timeLoss="37.69" rerouteNo="0" devices="tripinfo_OD206_NV.0" vType="NV" speedFactor="1.00" vaporized=""/>
    <tripinfo id="OD266_NV.0" depart="18.00" departLane="top4E4_0" departPos="5.10" departSpeed="10.00" departDelay="0.22" arrival="167.00" arrivalLane="E1right1_2" arrivalPos="286.40" arrivalSpeed="13.88" duration="149.00" routeLength="1492.21" waitingTime="25.00" waitingCount="1" stopTime="0.00" timeLoss="40.12" rerouteNo="0" devices="tripinfo_OD266_NV.0" vType="NV" speedFactor="1.00" vaporized=""/>
    <tripinfo id="OD189_RV.0" depart="8.00" departLane="top3D4_0" departPos="5.10" departSpeed="10.00" departDelay="0.02" arrival="172.00" arrivalLane="D4top3_1" arrivalPos="286.40" arrivalSpeed="12.96" duration="164.00" routeLength="1737.70" waitingTime="16.00" waitingCount="2" stopTime="0.00" timeLoss="36.36" rerouteNo="0" devices="tripinfo_OD189_RV.0" vType="RV" speedFactor="1.00" vaporized=""/>
    <tripinfo id="OD299_NV.0" depart="15.00" departLane="top1B4_0" departPos="5.10" departSpeed="10.00" departDelay="0.52" arrival="172.00" arrivalLane="B4top1_0" arrivalPos="286.40" arrivalSpeed="13.69" duration="157.00" routeLength="1768.66" waitingTime="12.00" waitingCount="1" stopTime="0.00" timeLoss="26.83" rerouteNo="0" devices="tripinfo_OD299_NV.0" vType="NV" speedFactor="1.00" vaporized=""/>
    <tripinfo id="OD213_NV.0" depart="89.00" departLane="bottom4E0_0" departPos="5.10" departSpeed="10.00" departDelay="0.00" arrival="172.00" arrivalLane="D0bottom3_2" arrivalPos="286.40" arrivalSpeed="13.73" duration="83.00" routeLength="889.52" waitingTime="7.00" waitingCount="1" stopTime="0.00" timeLoss="16.96" rerouteNo="0" devices="tripinfo_OD213_NV.0" vType="NV" speedFactor="1.00" vaporized=""/>
    <tripinfo id="OD368_NV.1" depart="101.00" departLane="right1E1_0" departPos="5.10" departSpeed="10.00" departDelay="0.86" arrival="172.00" arrivalLane="E2right2_0" arrivalPos="286.40" arrivalSpeed="13.20" duration="71.00" routeLength="858.56" waitingTime="0.00" waitingCount="0" stopTime="0.00" timeLoss="7.67" rerouteNo="0" devices="tripinfo_OD368_NV.1" vType="NV" speedFactor="1.00" vaporized=""/>
    <tripinfo id="OD310_NV.4" depart="101.00" departLane="left4A4_0" departPos="5.10" departSpeed="10.00" departDelay="0.28" arrival="172.00" arrivalLane="A3left3_0" arrivalPos="286.40" arrivalSpeed="12.83" duration="71.00" routeLength="858.56" waitingTime="0.00" waitingCount="0" stopTime="0.00" timeLoss="7.69" rerouteNo="0" devices="tripinfo_OD310_NV.4" vType="NV" speedFactor="1.00" vaporized=""/>
    <tripinfo id="OD135_NV.0" depart="51.00" departLane="left0A0_0" departPos="5.10" departSpeed="10.00" departDelay="0.64" arrival="173.00" arrivalLane="C0bottom2_0" arrivalPos="286.40" arrivalSpeed="12.87" duration="122.00" routeLength="1176.73" waitingTime="18.00" waitingCount="2" stopTime="0.00" timeLoss="36.28" rerouteNo="0" devices="tripinfo_OD135_NV.0" vType="NV" speedFactor="1.00" vaporized=""/>
    <tripinfo id="OD213_NV.1" depart="92.00" departLane="bottom4E0_0" departPos="5.10" departSpeed="10.00" departDelay="0.32" arrival="174.00" arrivalLane="D0bottom3_2" arrivalPos="286.40" arrivalSpeed="13.07" duration="82.00" routeLength="889.52" waitingTime="6.00" waitingCount="1" stopTime="0.00" timeLoss="16.25" rerouteNo="0" devices="tripinfo_OD213_NV.1" vType="NV" speedFactor="1.00" vaporized=""/>
    <tripinfo id="OD76_NV.1" depart="104.00" departLane="right0E0_0" departPos="5.10" departSpeed="10.00" departDelay="0.91" arrival="175.00" arrivalLane="E1right1_0" arrivalPos="286.40" arrivalSpeed="13.41" duration="71.00" routeLength="858.56" waitingTime="0.00" waitingCount="0" stopTime="0.00" timeLoss="8.17" rerouteNo="0" devices="tripinfo_OD76_NV.1" vType="NV" speedFactor="1.00" vaporized=""/>