<?xml version="1.0" encoding="UTF-8"?>

<!-- generated on 2025-02-17 02:42:42 by Eclipse SUMO sumo Version 1.20.0
<configuration xmlns:xsi="http://www.w3.org/2001/XMLSchema-instance" xsi:noNamespaceSchemaLocation="http://sumo.dlr.de/xsd/sumoConfiguration.xsd">

    <input>
        <net-file value="./envs/5x5/5x5.net.xml"/>
        <route-files value="./envs/5x5/Demand_20.rou.xml"/>
    </input>

    <output>
        <tripinfo-output value="./online_train/5x5\online_train_SACTF-mask-onlySV_multi_agents/tripinfo/tripinfo_ep189.xml"/>
    </output>

    <time>
        <begin value="0"/>
    </time>

    <processing>
        <time-to-teleport value="-1"/>
        <waiting-time-memory value="1800"/>
    </processing>

    <report>
        <no-step-log value="true"/>
    </report>

    <traci_server>
        <remote-port value="53601"/>
    </traci_server>

</configuration>
-->

<tripinfos xmlns:xsi="http://www.w3.org/2001/XMLSchema-instance" xsi:noNamespaceSchemaLocation="http://sumo.dlr.de/xsd/tripinfo_file.xsd">
    <tripinfo id="OD310_NV.0" depart="4.00" departLane="left4A4_0" departPos="5.10" departSpeed="10.00" departDelay="1.48" arrival="76.00" arrivalLane="A3left3_0" arrivalPos="286.40" arrivalSpeed="13.05" duration="72.00" routeLength="858.56" waitingTime="0.00" waitingCount="0" stopTime="0.00" timeLoss="8.26" rerouteNo="0" devices="tripinfo_OD310_NV.0" vType="NV" speedFactor="1.00" vaporized=""/>
    <tripinfo id="OD310_NV.1" depart="8.00" departLane="left4A4_0" departPos="5.10" departSpeed="10.00" departDelay="3.20" arrival="79.00" arrivalLane="A3left3_0" arrivalPos="286.40" arrivalSpeed="13.29" duration="71.00" routeLength="858.56" waitingTime="0.00" waitingCount="0" stopTime="0.00" timeLoss="7.51" rerouteNo="0" devices="tripinfo_OD310_NV.1" vType="NV" speedFactor="1.00" vaporized=""/>
    <tripinfo id="OD102_NV.0" depart="37.00" departLane="right4E4_0" departPos="5.10" departSpeed="10.00" departDelay="0.87" arrival="83.00" arrivalLane="E4top4_0" arrivalPos="286.40" arrivalSpeed="13.80" duration="46.00" routeLength="576.73" waitingTime="0.00" waitingCount="0" stopTime="0.00" timeLoss="3.92" rerouteNo="0" devices="tripinfo_OD102_NV.0" vType="NV" speedFactor="1.00" vaporized=""/>
    <tripinfo id="OD305_NV.0" depart="11.00" departLane="left4A4_0" departPos="5.10" departSpeed="10.00" departDelay="1.44" arrival="89.00" arrivalLane="A4top0_2" arrivalPos="286.40" arrivalSpeed="13.24" duration="78.00" routeLength="592.21" waitingTime="26.00" waitingCount="1" stopTime="0.00" timeLoss="34.39" rerouteNo="0" devices="tripinfo_OD305_NV.0" vType="NV" speedFactor="1.00" vaporized=""/>
    <tripinfo id="OD129_NV.0" depart="19.00" departLane="left1A1_0" departPos="5.10" departSpeed="10.00" departDelay="0.11" arrival="90.00" arrivalLane="A0left0_0" arrivalPos="286.40" arrivalSpeed="13.45" duration="71.00" routeLength="858.56" waitingTime="0.00" waitingCount="0" stopTime="0.00" timeLoss="7.59" rerouteNo="0" devices="tripinfo_OD129_NV.0" vType="NV" speedFactor="1.00" vaporized=""/>
    <tripinfo id="OD284_NV.0" depart="22.00" departLane="top4E4_0" departPos="5.10" departSpeed="10.00" departDelay="1.14" arrival="92.00" arrivalLane="D4top3_0" arrivalPos="286.40" arrivalSpeed="13.37" duration="70.00" routeLength="858.56" waitingTime="0.00" waitingCount="0" stopTime="0.00" timeLoss="6.54" rerouteNo="0" devices="tripinfo_OD284_NV.0" vType="NV" speedFactor="1.00" vaporized=""/>
    <tripinfo id="OD353_RV.0" depart="6.00" departLane="bottom2C0_0" departPos="5.10" departSpeed="10.00" departDelay="3.40" arrival="99.00" arrivalLane="E0right0_1" arrivalPos="286.40" arrivalSpeed="13.76" duration="93.00" routeLength="1176.73" waitingTime="0.00" waitingCount="0" stopTime="0.00" timeLoss="6.92" rerouteNo="0" devices="tripinfo_OD353_RV.0" vType="RV" speedFactor="1.00" vaporized=""/>
    <tripinfo id="OD169_RV.0" depart="7.00" departLane="left2A2_0" departPos="5.10" departSpeed="10.00" departDelay="0.60" arrival="99.00" arrivalLane="A0bottom0_1" arrivalPos="286.40" arrivalSpeed="12.80" duration="92.00" routeLength="1176.73" waitingTime="0.00" waitingCount="0" stopTime="0.00" timeLoss="6.46" rerouteNo="0" devices="tripinfo_OD169_RV.0" vType="RV" speedFactor="1.00" vaporized=""/>
    <tripinfo id="OD291_NV.0" depart="3.00" departLane="top1B4_0" departPos="5.10" departSpeed="10.00" departDelay="0.51" arrival="101.00" arrivalLane="A3left3_1" arrivalPos="286.40" arrivalSpeed="13.84" duration="98.00" routeLength="1176.73" waitingTime="3.00" waitingCount="1" stopTime="0.00" timeLoss="12.45" rerouteNo="0" devices="tripinfo_OD291_NV.0" vType="NV" speedFactor="1.00" vaporized=""/>
    <tripinfo id="OD129_RV.0" depart="32.00" departLane="left1A1_0" departPos="5.10" departSpeed="10.00" departDelay="0.10" arrival="102.00" arrivalLane="A0left0_0" arrivalPos="286.40" arrivalSpeed="13.20" duration="70.00" routeLength="858.56" waitingTime="0.00" waitingCount="0" stopTime="0.00" timeLoss="6.50" rerouteNo="0" devices="tripinfo_OD129_RV.0" vType="RV" speedFactor="1.00" vaporized=""/>
    <tripinfo id="OD45_NV.0" depart="6.00" departLane="right2E2_0" departPos="5.10" departSpeed="10.00" departDelay="0.70" arrival="104.00" arrivalLane="E4top4_1" arrivalPos="286.40" arrivalSpeed="13.85" duration="98.00" routeLength="1176.73" waitingTime="0.00" waitingCount="0" stopTime="0.00" timeLoss="12.21" rerouteNo="0" devices="tripinfo_OD45_NV.0" vType="NV" speedFactor="1.00" vaporized=""/>
    <tripinfo id="OD257_RV.0" depart="12.00" departLane="left3A3_0" departPos="5.10" departSpeed="10.00" departDelay="1.82" arrival="106.00" arrivalLane="A1left1_0" arrivalPos="286.40" arrivalSpeed="13.28" duration="94.00" routeLength="1158.56" waitingTime="0.00" waitingCount="0" stopTime="0.00" timeLoss="8.81" rerouteNo="0" devices="tripinfo_OD257_RV.0" vType="RV" speedFactor="1.00" vaporized=""/>
    <tripinfo id="OD113_NV.0" depart="35.00" departLane="right4E4_0" departPos="5.10" departSpeed="10.00" departDelay="0.56" arrival="108.00" arrivalLane="D4top3_0" arrivalPos="286.40" arrivalSpeed="13.25" duration="73.00" routeLength="876.73" waitingTime="0.00" waitingCount="0" stopTime="0.00" timeLoss="8.86" rerouteNo="0" devices="tripinfo_OD113_NV.0" vType="NV" speedFactor="1.00" vaporized=""/>
    <tripinfo id="OD310_NV.2" depart="38.00" departLane="left4A4_0" departPos="5.10" departSpeed="10.00" departDelay="0.76" arrival="108.00" arrivalLane="A3left3_0" arrivalPos="286.40" arrivalSpeed="13.27" duration="70.00" routeLength="858.56" waitingTime="0.00" waitingCount="0" stopTime="0.00" timeLoss="6.43" rerouteNo="0" devices="tripinfo_OD310_NV.2" vType="NV" speedFactor="1.00" vaporized=""/>
    <tripinfo id="OD374_NV.0" depart="12.00" departLane="right1E1_0" departPos="5.10" departSpeed="10.00" departDelay="2.10" arrival="110.00" arrivalLane="E3right3_0" arrivalPos="286.40" arrivalSpeed="12.94" duration="98.00" routeLength="1158.56" waitingTime="0.00" waitingCount="0" stopTime="0.00" timeLoss="13.05" rerouteNo="0" devices="tripinfo_OD374_NV.0" vType="NV" speedFactor="1.00" vaporized=""/>
    <tripinfo id="OD354_NV.0" depart="10.00" departLane="bottom2C0_0" departPos="5.10" departSpeed="10.00" departDelay="0.22" arrival="111.00" arrivalLane="B0bottom1_2" arrivalPos="286.40" arrivalSpeed="13.09" duration="101.00" routeLength="889.52" waitingTime="24.00" waitingCount="1" stopTime="0.00" timeLoss="34.81" rerouteNo="0" devices="tripinfo_OD354_NV.0" vType="NV" speedFactor="1.00" vaporized=""/>
    <tripinfo id="OD176_NV.0" depart="40.00" departLane="top3D4_0" departPos="5.10" departSpeed="10.00" departDelay="0.16" arrival="111.00" arrivalLane="C4top2_0" arrivalPos="286.40" arrivalSpeed="12.77" duration="71.00" routeLength="858.56" waitingTime="0.00" waitingCount="0" stopTime="0.00" timeLoss="6.94" rerouteNo="0" devices="tripinfo_OD176_NV.0" vType="NV" speedFactor="1.00" vaporized=""/>
    <tripinfo id="OD21_RV.0" depart="16.00" departLane="top2C4_0" departPos="5.10" departSpeed="10.00" departDelay="0.63" arrival="115.00" arrivalLane="A4left4_1" arrivalPos="286.40" arrivalSpeed="13.73" duration="99.00" routeLength="1176.73" waitingTime="2.00" waitingCount="1" stopTime="0.00" timeLoss="13.58" rerouteNo="0" devices="tripinfo_OD21_RV.0" vType="RV" speedFactor="1.00" vaporized=""/>
    <tripinfo id="OD65_RV.0" depart="48.00" departLane="bottom3D0_0" departPos="5.10" departSpeed="10.00" departDelay="1.05" arrival="119.00" arrivalLane="E0bottom4_0" arrivalPos="286.40" arrivalSpeed="13.57" duration="71.00" routeLength="858.56" waitingTime="0.00" waitingCount="0" stopTime="0.00" timeLoss="7.55" rerouteNo="0" devices="tripinfo_OD65_RV.0" vType="RV" speedFactor="1.00" vaporized=""/>
    <tripinfo id="OD50_NV.0" depart="49.00" departLane="right2E2_0" departPos="5.10" departSpeed="10.00" departDelay="0.93" arrival="120.00" arrivalLane="E3right3_0" arrivalPos="286.40" arrivalSpeed="13.16" duration="71.00" routeLength="858.56" waitingTime="0.00" waitingCount="0" stopTime="0.00" timeLoss="7.48" rerouteNo="0" devices="tripinfo_OD50_NV.0" vType="NV" speedFactor="1.00" vaporized=""/>
    <tripinfo id="OD284_NV.1" depart="54.00" departLane="top4E4_0" departPos="5.10" departSpeed="10.00" departDelay="0.77" arrival="124.00" arrivalLane="D4top3_0" arrivalPos="286.40" arrivalSpeed="13.59" duration="70.00" routeLength="858.56" waitingTime="0.00" waitingCount="0" stopTime="0.00" timeLoss="7.35" rerouteNo="0" devices="tripinfo_OD284_NV.1" vType="NV" speedFactor="1.00" vaporized=""/>
    <tripinfo id="OD65_NV.0" depart="54.00" departLane="bottom3D0_0" departPos="5.10" departSpeed="10.00" departDelay="0.88" arrival="125.00" arrivalLane="E0bottom4_0" arrivalPos="286.40" arrivalSpeed="12.99" duration="71.00" routeLength="858.56" waitingTime="0.00" waitingCount="0" stopTime="0.00" timeLoss="7.92" rerouteNo="0" devices="tripinfo_OD65_NV.0" vType="NV" speedFactor="1.00" vaporized=""/>
    <tripinfo id="OD257_NV.0" depart="38.00" departLane="left3A3_0" departPos="5.10" departSpeed="10.00" departDelay="0.13" arrival="132.00" arrivalLane="A1left1_0" arrivalPos="286.40" arrivalSpeed="12.94" duration="94.00" routeLength="1158.56" waitingTime="0.00" waitingCount="0" stopTime="0.00" timeLoss="8.33" rerouteNo="0" devices="tripinfo_OD257_NV.0" vType="NV" speedFactor="1.00" vaporized=""/>
    <tripinfo id="OD50_NV.1" depart="60.00" departLane="right2E2_0" departPos="5.10" departSpeed="10.00" departDelay="0.59" arrival="132.00" arrivalLane="E3right3_0" arrivalPos="286.40" arrivalSpeed="13.30" duration="72.00" routeLength="858.56" waitingTime="0.00" waitingCount="0" stopTime="0.00" timeLoss="8.21" rerouteNo="0" devices="tripinfo_OD50_NV.1" vType="NV" speedFactor="1.00" vaporized=""/>
    <tripinfo id="OD184_NV.0" depart="25.00" departLane="top3D4_0" departPos="5.10" departSpeed="10.00" departDelay="5.03" arrival="134.00" arrivalLane="B4top1_0" arrivalPos="286.40" arrivalSpeed="12.86" duration="109.00" routeLength="1158.56" waitingTime="10.00" waitingCount="1" stopTime="0.00" timeLoss="23.54" rerouteNo="0" devices="tripinfo_OD184_NV.0" vType="NV" speedFactor="1.00" vaporized=""/>
    <tripinfo id="OD76_NV.0" depart="65.00" departLane="right0E0_0" departPos="5.10" departSpeed="10.00" departDelay="0.41" arrival="136.00" arrivalLane="E1right1_0" arrivalPos="286.40" arrivalSpeed="13.55" duration="71.00" routeLength="858.56" waitingTime="0.00" waitingCount="0" stopTime="0.00" timeLoss="7.46" rerouteNo="0" devices="tripinfo_OD76_NV.0" vType="NV" speedFactor="1.00" vaporized=""/>
    <tripinfo id="OD184_RV.0" depart="29.00" departLane="top3D4_0" departPos="5.10" departSpeed="10.00" departDelay="1.79" arrival="137.00" arrivalLane="B4top1_0" arrivalPos="286.40" arrivalSpeed="12.97" duration="108.00" routeLength="1158.56" waitingTime="6.00" waitingCount="1" stopTime="0.00" timeLoss="22.64" rerouteNo="0" devices="tripinfo_OD184_RV.0" vType="RV" speedFactor="1.00" vaporized=""/>
    <tripinfo id="OD87_NV.0" depart="25.00" departLane="right0E0_0" departPos="5.10" departSpeed="10.00" departDelay="0.35" arrival="140.00" arrivalLane="B0bottom1_2" arrivalPos="286.40" arrivalSpeed="13.75" duration="115.00" routeLength="1492.21" waitingTime="0.00" waitingCount="0" stopTime="0.00" timeLoss="6.44" rerouteNo="0" devices="tripinfo_OD87_NV.0" vType="NV" speedFactor="1.00" vaporized=""/>
    <tripinfo id="OD21_RV.1" depart="36.00" departLane="top2C4_0" departPos="5.10" departSpeed="10.00" departDelay="0.64" arrival="141.00" arrivalLane="A4left4_1" arrivalPos="286.40" arrivalSpeed="12.64" duration="105.00" routeLength="1176.73" waitingTime="7.00" waitingCount="1" stopTime="0.00" timeLoss="19.24" rerouteNo="0" devices="tripinfo_OD21_RV.1" vType="RV" speedFactor="1.00" vaporized=""/>
    <tripinfo id="OD50_NV.2" depart="71.00" departLane="right2E2_0" departPos="5.10" departSpeed="10.00" departDelay="0.74" arrival="142.00" arrivalLane="E3right3_0" arrivalPos="286.40" arrivalSpeed="12.51" duration="71.00" routeLength="858.56" waitingTime="0.00" waitingCount="0" stopTime="0.00" timeLoss="7.69" rerouteNo="0" devices="tripinfo_OD50_NV.2" vType="NV" speedFactor="1.00" vaporized=""/>
    <tripinfo id="OD288_RV.0" depart="59.00" departLane="top1B4_0" departPos="5.10" departSpeed="10.00" departDelay="1.65" arrival="143.00" arrivalLane="A4left4_1" arrivalPos="286.40" arrivalSpeed="13.68" duration="84.00" routeLength="876.73" waitingTime="6.00" waitingCount="1" stopTime="0.00" timeLoss="19.64" rerouteNo="0" devices="tripinfo_OD288_RV.0" vType="RV" speedFactor="1.00" vaporized=""/>
    <tripinfo id="OD174_NV.0" depart="19.00" departLane="top3D4_0" departPos="5.10" departSpeed="10.00" departDelay="0.66" arrival="145.00" arrivalLane="A4left4_1" arrivalPos="286.40" arrivalSpeed="12.56" duration="126.00" routeLength="1476.73" waitingTime="5.00" waitingCount="1" stopTime="0.00" timeLoss="18.37" rerouteNo="0" devices="tripinfo_OD174_NV.0" vType="NV" speedFactor="1.00" vaporized=""/>
    <tripinfo id="OD176_NV.1" depart="76.00" departLane="top3D4_0" departPos="5.10" departSpeed="10.00" departDelay="1.17" arrival="146.00" arrivalLane="C4top2_0" arrivalPos="286.40" arrivalSpeed="13.59" duration="70.00" routeLength="858.56" waitingTime="0.00" waitingCount="0" stopTime="0.00" timeLoss="6.73" rerouteNo="0" devices="tripinfo_OD176_NV.1" vType="NV" speedFactor="1.00" vaporized=""/>
    <tripinfo id="OD368_NV.0" depart="78.00" departLane="right1E1_0" departPos="5.10" departSpeed="10.00" departDelay="0.11" arrival="149.00" arrivalLane="E2right2_0" arrivalPos="286.40" arrivalSpeed="13.35" duration="71.00" routeLength="858.56" waitingTime="0.00" waitingCount="0" stopTime="0.00" timeLoss="7.61" rerouteNo="0" devices="tripinfo_OD368_NV.0" vType="NV" speedFactor="1.00" vaporized=""/>
    <tripinfo id="OD131_NV.0" depart="80.00" departLane="left1A1_0" departPos="5.10" departSpeed="10.00" departDelay="0.33" arrival="150.00" arrivalLane="A0bottom0_1" arrivalPos="286.40" arrivalSpeed="13.04" duration="70.00" routeLength="876.73" waitingTime="0.00" waitingCount="0" stopTime="0.00" timeLoss="5.54" rerouteNo="0" devices="tripinfo_OD131_NV.0" vType="NV" speedFactor="1.00" vaporized=""/>
    <tripinfo id="OD199_NV.0" depart="16.00" departLane="bottom1B0_0" departPos="5.10" departSpeed="10.00" departDelay="3.02" arrival="151.00" arrivalLane="E0bottom4_0" arrivalPos="286.40" arrivalSpeed="13.61" duration="135.00" routeLength="1458.56" waitingTime="5.00" waitingCount="1" stopTime="0.00" timeLoss="27.73" rerouteNo="0" devices="tripinfo_OD199_NV.0" vType="NV" speedFactor="1.00" vaporized=""/>
    <tripinfo id="OD52_NV.0" depart="59.00" departLane="right2E2_0" departPos="5.10" departSpeed="10.00" departDelay="0.01" arrival="153.00" arrivalLane="E4right4_0" arrivalPos="286.40" arrivalSpeed="13.33" duration="94.00" routeLength="1158.56" waitingTime="0.00" waitingCount="0" stopTime="0.00" timeLoss="8.81" rerouteNo="0" devices="tripinfo_OD52_NV.0" vType="NV" speedFactor="1.00" vaporized=""/>
    <tripinfo id="OD310_NV.3" depart="82.00" departLane="left4A4_0" departPos="5.10" departSpeed="10.00" departDelay="0.90" arrival="153.00" arrivalLane="A3left3_0" arrivalPos="286.40" arrivalSpeed="13.24" duration="71.00" routeLength="858.56" waitingTime="0.00" waitingCount="0" stopTime="0.00" timeLoss="7.98" rerouteNo="0" devices="tripinfo_OD310_NV.3" vType="NV" speedFactor="1.00" vaporized=""/>
    <tripinfo id="OD107_RV.0" depart="52.00" departLane="right4E4_0" departPos="5.10" departSpeed="10.00" departDelay="0.99" arrival="157.00" arrivalLane="E3right3_2" arrivalPos="286.40" arrivalSpeed="12.49" duration="105.00" routeLength="889.52" waitingTime="24.00" waitingCount="2" stopTime="0.00" timeLoss="39.22" rerouteNo="0" devices="tripinfo_OD107_RV.0" vType="RV" speedFactor="1.00" vaporized=""/>
    <tripinfo id="OD189_RV.0" depart="8.00" departLane="top3D4_0" departPos="5.10" departSpeed="10.00" departDelay="0.02" arrival="158.00" arrivalLane="D4top3_1" arrivalPos="286.40" arrivalSpeed="13.33" duration="150.00" routeLength="1737.70" waitingTime="6.00" waitingCount="1" stopTime="0.00" timeLoss="22.91" rerouteNo="0" devices="tripinfo_OD189_RV.0" vType="RV" speedFactor="1.00" vaporized=""/>
    <tripinfo id="OD279_NV.0" depart="78.00" departLane="top4E4_0" departPos="5.10" departSpeed="10.00" departDelay="0.76" arrival="159.00" arrivalLane="E3right3_2" arrivalPos="286.40" arrivalSpeed="12.65" duration="81.00" routeLength="892.21" waitingTime="7.00" waitingCount="1" stopTime="0.00" timeLoss="15.73" rerouteNo="0" devices="tripinfo_OD279_NV.0" vType="NV" speedFactor="1.00" vaporized=""/>
    <tripinfo id="OD339_RV.0" depart="89.00" departLane="bottom0A0_0" departPos="5.10" departSpeed="10.00" departDelay="0.59" arrival="159.00" arrivalLane="A0left0_2" arrivalPos="286.40" arrivalSpeed="13.76" duration="70.00" routeLength="592.21" waitingTime="19.00" waitingCount="1" stopTime="0.00" timeLoss="26.53" rerouteNo="0" devices="tripinfo_OD339_RV.0" vType="RV" speedFactor="1.00" vaporized=""/>
    <tripinfo id="OD14_NV.0" depart="90.00" departLane="right3E3_0" departPos="5.10" departSpeed="10.00" departDelay="0.85" arrival="161.00" arrivalLane="E4right4_0" arrivalPos="286.40" arrivalSpeed="12.50" duration="71.00" routeLength="858.56" waitingTime="0.00" waitingCount="0" stopTime="0.00" timeLoss="7.42" rerouteNo="0" devices="tripinfo_OD14_NV.0" vType="NV" speedFactor="1.00" vaporized=""/>
    <tripinfo id="OD7_NV.0" depart="77.00" departLane="right3E3_0" departPos="5.10" departSpeed="10.00" departDelay="0.10" arrival="163.00" arrivalLane="E4top4_1" arrivalPos="286.40" arrivalSpeed="13.34" duration="86.00" routeLength="876.73" waitingTime="11.00" waitingCount="1" stopTime="0.00" timeLoss="21.09" rerouteNo="0" devices="tripinfo_OD7_NV.0" vType="NV" speedFactor="1.00" vaporized=""/>
    <tripinfo id="OD369_NV.0" depart="5.00" departLane="right1E1_0" departPos="5.10" departSpeed="10.00" departDelay="2.04" arrival="164.00" arrivalLane="E4top4_1" arrivalPos="286.40" arrivalSpeed="12.81" duration="159.00" routeLength="1476.73" waitingTime="28.00" waitingCount="3" stopTime="0.00" timeLoss="52.14" rerouteNo="0" devices="tripinfo_OD369_NV.0" vType="NV" speedFactor="1.00" vaporized=""/>
    <tripinfo id="OD130_NV.0" depart="83.00" departLane="left1A1_0" departPos="5.10" departSpeed="10.00" departDelay="0.31" arrival="167.00" arrivalLane="A2left2_2" arrivalPos="286.40" arrivalSpeed="12.66" duration="84.00" routeLength="889.52" waitingTime="9.00" waitingCount="1" stopTime="0.00" timeLoss="18.21" rerouteNo="0" devices="tripinfo_OD130_NV.0" vType="NV" speedFactor="1.00" vaporized=""/>
    <tripinfo id="OD374_NV.1" depart="60.00" departLane="right1E1_0" departPos="5.10" departSpeed="10.00" departDelay="0.36" arrival="168.00" arrivalLane="E3right3_0" arrivalPos="286.40" arrivalSpeed="12.89" duration="108.00" routeLength="1158.56" waitingTime="9.00" waitingCount="1" stopTime="0.00" timeLoss="22.55" rerouteNo="0" devices="tripinfo_OD374_NV.1" vType="NV" speedFactor="1.00" vaporized=""/>
    <tripinfo id="OD149_NV.0" depart="7.00" departLane="left0A0_0" departPos="5.10" departSpeed="10.00" departDelay="0.02" arrival="169.00" arrivalLane="A2left2_2" arrivalPos="286.40" arrivalSpeed="12.81" duration="162.00" routeLength="1189.52" waitingTime="57.00" waitingCount="2" stopTime="0.00" timeLoss="74.80" rerouteNo="0" devices="tripinfo_OD149_NV.0" vType="NV" speedFactor="1.00" vaporized=""/>
    <tripinfo id="OD353_RV.1" depart="64.00" departLane="bottom2C0_0" departPos="5.10" departSpeed="10.00" departDelay="0.22" arrival="170.00" arrivalLane="E0right0_1" arrivalPos="286.40" arrivalSpeed="12.59" duration="106.00" routeLength="1176.73" waitingTime="8.00" waitingCount="1" stopTime="0.00" timeLoss="20.26" rerouteNo="0" devices="tripinfo_OD353_RV.1" vType="RV" speedFactor="1.00" vaporized=""/>
    <tripinfo id="OD149_NV.1" depart="40.00" departLane="left0A0_0" departPos="5.10" departSpeed="10.00" departDelay="0.33" arrival="171.00" arrivalLane="A2left2_2" arrivalPos="286.40" arrivalSpeed="13.75" duration="131.00" routeLength="1189.52" waitingTime="29.00" waitingCount="1" stopTime="0.00" timeLoss="43.96" rerouteNo="0" devices="tripinfo_OD149_NV.1" vType="NV" speedFactor="1.00" vaporized=""/>
    <tripinfo id="OD135_NV.0" depart="51.00" departLane="left0A0_0" departPos="5.10" departSpeed="10.00" departDelay="0.64" arrival="171.00" arrivalLane="C0bottom2_0" arrivalPos="286.40" arrivalSpeed="13.75" duration="120.00" routeLength="1176.73" waitingTime="18.00" waitingCount="2" stopTime="0.00" timeLoss="34.17" rerouteNo="0" devices="tripinfo_OD135_NV.0" vType="NV" speedFactor="1.00" vaporized=""/>
    <tripinfo id="OD368_NV.1" depart="101.00" departLane="right1E1_0" departPos="5.10" departSpeed="10.00" departDelay="0.86" arrival="171.00" arrivalLane="E2right2_0" arrivalPos="286.40" arrivalSpeed="12.39" duration="70.00" routeLength="858.56" waitingTime="0.00" waitingCount="0" stopTime="0.00" timeLoss="6.48" rerouteNo="0" devices="tripinfo_OD368_NV.1" vType="NV" speedFactor="1.00" vaporized=""/>
    <tripinfo id="OD310_NV.4" depart="101.00" departLane="left4A4_0" departPos="5.10" departSpeed="10.00" departDelay="0.28" arrival="171.00" arrivalLane="A3left3_0" arrivalPos="286.40" arrivalSpeed="12.95" duration="70.00" routeLength="858.56" waitingTime="0.00" waitingCount="0" stopTime="0.00" timeLoss="6.59" rerouteNo="0" devices="tripinfo_OD310_NV.4" vType="NV" speedFactor="1.00" vaporized=""/>
    <tripinfo id="OD200_RV.0" depart="56.00" departLane="bottom1B0_0" departPos="5.10" departSpeed="10.00" departDelay="0.93" arrival="173.00" arrivalLane="E0right0_1" arrivalPos="286.40" arrivalSpeed="12.41" duration="117.00" routeLength="1476.73" waitingTime="0.00" waitingCount="0" stopTime="0.00" timeLoss="9.36" rerouteNo="0" devices="tripinfo_OD200_RV.0" vType="RV" speedFactor="1.00" vaporized=""/>
    <tripinfo id="OD353_NV.0" depart="80.00" departLane="bottom2C0_0" departPos="5.10" departSpeed="10.00" departDelay="0.36" arrival="174.00" arrivalLane="E0right0_1" arrivalPos="286.40" arrivalSpeed="12.91" duration="94.00" routeLength="1176.73" waitingTime="0.00" waitingCount="0" stopTime="0.00" timeLoss="8.56" rerouteNo="0" devices="tripinfo_OD353_NV.0" vType="NV" speedFactor="1.00" vaporized=""/>
    <tripinfo id="OD76_NV.1" depart="104.00" departLane="right0E0_0" departPos="5.10" departSpeed="10.00" departDelay="0.91" arrival="175.00" arrivalLane="E1right1_0" arrivalPos="286.40" arrivalSpeed="13.14" duration="71.00" routeLength="858.56" waitingTime="0.00" waitingCount="0" stopTime="0.00" timeLoss="7.33" rerouteNo="0" devices="tripinfo_OD76_NV.1" vType="NV" speedFactor="1.00" vaporized=""/>
    <tripinfo id="OD192_NV.0" depart="106.00" departLane="bottom1B0_0" departPos="5.10" departSpeed="10.00" departDelay="0.31" arrival="177.00" arrivalLane="C0bottom2_0" arrivalPos="286.40" arrivalSpeed="13.89" duration="71.00" routeLength="858.56" waitingTime="0.00" waitingCount="0" stopTime="0.00" timeLoss="7.48" rerouteNo="0" devices="tripinfo_OD192_NV.0" vType="NV" speedFactor="1.00" vaporized=""/>
    <tripinfo id="OD161_NV.0" depart="108.00" departLane="left2A2_0" departPos="5.10" departSpeed="10.00" departDelay="0.85" arrival="178.00" arrivalLane="A1left1_0" arrivalPos="286.40" arrivalSpeed="12.41" duration="70.00" routeLength="858.56" waitingTime="0.00" waitingCount="0" stopTime="0.00" timeLoss="6.78" rerouteNo="0" devices="tripinfo_OD161_NV.0" vType="NV" speedFactor="1.00" vaporized=""/>
    <tripinfo id="OD68_RV.0" depart="20.00" departLane="bottom3D0_0" departPos="5.10" departSpeed="10.00" departDelay="0.38" arrival="179.00" arrivalLane="B0bottom1_2" arrivalPos="286.40" arrivalSpeed="13.19" duration="159.00" routeLength="1189.52" waitingTime="58.00" waitingCount="2" stopTime="0.00" timeLoss="71.69" rerouteNo="0" devices="tripinfo_OD68_RV.0" vType="RV" speedFactor="1.00" vaporized=""/>
    <tripinfo id="OD194_NV.0" depart="83.00" departLane="bottom1B0_0" departPos="5.10" departSpeed="10.00" departDelay="1.99" arrival="181.00" arrivalLane="D0bottom3_0" arrivalPos="286.40" arrivalSpeed="13.27" duration="98.00" routeLength="1158.56" waitingTime="0.00" waitingCount="0" stopTime="0.00" timeLoss="13.30" rerouteNo="0" devices="tripinfo_OD194_NV.0" vType="NV" speedFactor="1.00" vaporized=""/>
    <tripinfo id="OD354_RV.0" depart="92.00" departLane="bottom2C0_0" departPos="5.10" departSpeed="10.00" departDelay="1.84" arrival="181.00" arrivalLane="B0bottom1_2" arrivalPos="286.40" arrivalSpeed="12.88" duration="89.00" routeLength="889.52" waitingTime="10.00" waitingCount="1" stopTime="0.00" timeLoss="23.31" rerouteNo="0" devices="tripinfo_OD354_RV.0" vType="RV" speedFactor="1.00" vaporized=""/>
    <tripinfo id="OD161_NV.1" depart="110.00" departLane="left2A2_0" departPos="5.10" departSpeed="10.00" departDelay="2.36" arrival="181.00" arrivalLane="A1left1_0" arrivalPos="286.40" arrivalSpeed="13.54" duration="71.00" routeLength="858.56" waitingTime="0.00" waitingCount="0" stopTime="0.00" timeLoss="7.35" rerouteNo="0" devices="tripinfo_OD161_NV.1" vType="NV" speedFactor="1.00" vaporized=""/>
    <tripinfo id="OD244_NV.0" depart="9.00" departLane="top0A4_0" departPos="5.10" departSpeed="10.00" departDelay="1.64" arrival="182.00" arrivalLane="A2left2_0" arrivalPos="286.40" arrivalSpeed="13.49" duration="173.00" routeLength="1176.73" waitingTime="69.00" waitingCount="2" stopTime="0.00" timeLoss="87.27" rerouteNo="0" devices="tripinfo_OD244_NV.0" vType="NV" speedFactor="1.00" vaporized=""/>
    <tripinfo id="OD142_NV.0" depart="31.00" departLane="left0A0_0" departPos="5.10" departSpeed="10.00" departDelay="0.33" arrival="182.00" arrivalLane="A1left1_2" arrivalPos="286.40" arrivalSpeed="13.78" duration="151.00" routeLength="889.52" waitingTime="71.00" waitingCount="2" stopTime="0.00" timeLoss="85.77" rerouteNo="0" devices="tripinfo_OD142_NV.0" vType="NV" speedFactor="1.00" vaporized=""/>
    <tripinfo id="OD216_NV.0" depart="71.00" departLane="bottom4E0_0" departPos="5.10" departSpeed="10.00" departDelay="0.90" arrival="183.00" arrivalLane="E2right2_0" arrivalPos="286.40" arrivalSpeed="13.50" duration="112.00" routeLength="1176.73" waitingTime="8.00" waitingCount="2" stopTime="0.00" timeLoss="25.88" rerouteNo="0" devices="tripinfo_OD216_NV.0" vType="NV" speedFactor="1.00" vaporized=""/>
    <tripinfo id="OD358_NV.0" depart="29.00" departLane="bottom2C0_0" departPos="5.10" departSpeed="10.00" departDelay="0.61" arrival="185.00" arrivalLane="A0left0_1" arrivalPos="286.40" arrivalSpeed="13.34" duration="156.00" routeLength="1192.21" waitingTime="45.00" waitingCount="3" stopTime="0.00" timeLoss="69.08" rerouteNo="0" devices="tripinfo_OD358_NV.0" vType="NV" speedFactor="1.00" vaporized=""/>
    <tripinfo id="OD333_NV.0" depart="74.00" departLane="bottom0A0_0" departPos="5.10" departSpeed="10.00" departDelay="1.16" arrival="185.00" arrivalLane="A1left1_2" arrivalPos="286.40" arrivalSpeed="13.66" duration="111.00" routeLength="892.21" waitingTime="35.00" waitingCount="1" stopTime="0.00" timeLoss="45.80" rerouteNo="0" devices="tripinfo_OD333_NV.0" vType="NV" speedFactor="1.00" vaporized=""/>
    <tripinfo id="OD148_RV.0" depart="18.00" departLane="left0A0_0" departPos="5.10" departSpeed="10.00" departDelay="0.00" arrival="187.00" arrivalLane="A0left0_1" arrivalPos="286.40" arrivalSpeed="13.40" duration="169.00" routeLength="1737.70" waitingTime="17.00" waitingCount="2" stopTime="0.00" timeLoss="40.66" rerouteNo="0" devices="tripinfo_OD148_RV.0" vType="RV" speedFactor="1.00" vaporized=""/>
    <tripinfo id="OD142_NV.1" depart="45.00" departLane="left0A0_0" departPos="5.10" departSpeed="10.00" departDelay="0.59" arrival="187.00" arrivalLane="A1left1_2" arrivalPos="286.40" arrivalSpeed="12.64" duration="142.00" routeLength="889.52" waitingTime="62.00" waitingCount="2" stopTime="0.00" timeLoss="76.66" rerouteNo="0" devices="tripinfo_OD142_NV.1" vType="NV" speedFactor="1.00" vaporized=""/>
    <tripinfo id="OD220_RV.0" depart="66.00" departLane="bottom4E0_0" departPos="5.10" departSpeed="10.00" departDelay="0.44" arrival="187.00" arrivalLane="B0bottom1_2" arrivalPos="286.40" arrivalSpeed="12.78" duration="121.00" routeLength="1489.52" waitingTime="0.00" waitingCount="0" stopTime="0.00" timeLoss="11.80" rerouteNo="0" devices="tripinfo_OD220_RV.0" vType="RV" speedFactor="1.00" vaporized=""/>
    <tripinfo id="OD82_NV.0" depart="88.00" departLane="right0E0_0" departPos="5.10" departSpeed="10.00" departDelay="0.00" arrival="187.00" arrivalLane="E2right2_0" arrivalPos="286.40" arrivalSpeed="13.63" duration="99.00" routeLength="1158.56" waitingTime="2.00" waitingCount="1" stopTime="0.00" timeLoss="13.93" rerouteNo="0" devices="tripinfo_OD82_NV.0" vType="NV" speedFactor="1.00" vaporized=""/>