<?xml version="1.0" encoding="UTF-8"?>

<!-- generated on 2025-02-26 16:10:04 by Eclipse SUMO sumo Version 1.20.0
<configuration xmlns:xsi="http://www.w3.org/2001/XMLSchema-instance" xsi:noNamespaceSchemaLocation="http://sumo.dlr.de/xsd/sumoConfiguration.xsd">

    <input>
        <net-file value="./envs/5x5/beta/5x5.net.xml"/>
        <route-files value="./envs/5x5/beta/Demand_200.rou.xml"/>
    </input>

    <output>
        <tripinfo-output value="./envs/5x5/beta/tripinfo_MP_200.xml"/>
    </output>

    <time>
        <begin value="0"/>
    </time>

    <processing>
        <time-to-teleport value="-1"/>
        <waiting-time-memory value="1800"/>
    </processing>

    <report>
        <no-step-log value="true"/>
    </report>

    <traci_server>
        <remote-port value="61690"/>
    </traci_server>

</configuration>
-->

<tripinfos xmlns:xsi="http://www.w3.org/2001/XMLSchema-instance" xsi:noNamespaceSchemaLocation="http://sumo.dlr.de/xsd/tripinfo_file.xsd">
    <tripinfo id="OD359_NV.0" depart="17.00" departLane="right4E4_0" departPos="5.10" departSpeed="10.00" departDelay="1.56" arrival="64.00" arrivalLane="E4top4_0" arrivalPos="286.40" arrivalSpeed="12.81" duration="47.00" routeLength="576.73" waitingTime="0.00" waitingCount="0" stopTime="0.00" timeLoss="4.50" rerouteNo="0" devices="tripinfo_OD359_NV.0" vType="NV" speedFactor="1.00" vaporized=""/>
    <tripinfo id="OD217_NV.0" depart="17.00" departLane="bottom4E0_0" departPos="5.10" departSpeed="10.00" departDelay="0.06" arrival="64.00" arrivalLane="E0right0_0" arrivalPos="286.40" arrivalSpeed="13.12" duration="47.00" routeLength="576.73" waitingTime="0.00" waitingCount="0" stopTime="0.00" timeLoss="4.35" rerouteNo="0" devices="tripinfo_OD217_NV.0" vType="NV" speedFactor="1.00" vaporized=""/>
    <tripinfo id="OD19_RV.0" depart="2.00" departLane="left3A3_0" departPos="5.10" departSpeed="10.00" departDelay="0.73" arrival="73.00" arrivalLane="A2left2_0" arrivalPos="286.40" arrivalSpeed="12.61" duration="71.00" routeLength="858.56" waitingTime="0.00" waitingCount="0" stopTime="0.00" timeLoss="6.50" rerouteNo="0" devices="tripinfo_OD19_RV.0" vType="RV" speedFactor="1.00" vaporized=""/>
    <tripinfo id="OD189_NV.0" depart="8.00" departLane="left1A1_0" departPos="5.10" departSpeed="10.00" departDelay="0.02" arrival="79.00" arrivalLane="A0left0_0" arrivalPos="286.40" arrivalSpeed="13.08" duration="71.00" routeLength="858.56" waitingTime="0.00" waitingCount="0" stopTime="0.00" timeLoss="6.90" rerouteNo="0" devices="tripinfo_OD189_NV.0" vType="NV" speedFactor="1.00" vaporized=""/>
    <tripinfo id="OD252_NV.0" depart="10.00" departLane="bottom2C0_0" departPos="5.10" departSpeed="10.00" departDelay="0.17" arrival="80.00" arrivalLane="D0bottom3_0" arrivalPos="286.40" arrivalSpeed="12.53" duration="70.00" routeLength="858.56" waitingTime="0.00" waitingCount="0" stopTime="0.00" timeLoss="6.74" rerouteNo="0" devices="tripinfo_OD252_NV.0" vType="NV" speedFactor="1.00" vaporized=""/>
    <tripinfo id="OD189_NV.1" depart="13.00" departLane="left1A1_0" departPos="5.10" departSpeed="10.00" departDelay="0.53" arrival="84.00" arrivalLane="A0left0_0" arrivalPos="286.40" arrivalSpeed="12.59" duration="71.00" routeLength="858.56" waitingTime="0.00" waitingCount="0" stopTime="0.00" timeLoss="7.61" rerouteNo="0" devices="tripinfo_OD189_NV.1" vType="NV" speedFactor="1.00" vaporized=""/>
    <tripinfo id="OD298_NV.0" depart="15.00" departLane="right2E2_0" departPos="5.10" departSpeed="10.00" departDelay="0.52" arrival="86.00" arrivalLane="E3right3_0" arrivalPos="286.40" arrivalSpeed="13.47" duration="71.00" routeLength="858.56" waitingTime="0.00" waitingCount="0" stopTime="0.00" timeLoss="7.40" rerouteNo="0" devices="tripinfo_OD298_NV.0" vType="NV" speedFactor="1.00" vaporized=""/>
    <tripinfo id="OD307_RV.0" depart="9.00" departLane="left0A0_0" departPos="5.10" departSpeed="10.00" departDelay="3.39" arrival="87.00" arrivalLane="B0bottom1_0" arrivalPos="286.40" arrivalSpeed="13.85" duration="78.00" routeLength="876.73" waitingTime="0.00" waitingCount="0" stopTime="0.00" timeLoss="13.78" rerouteNo="0" devices="tripinfo_OD307_RV.0" vType="RV" speedFactor="1.00" vaporized=""/>
    <tripinfo id="OD128_RV.0" depart="19.00" departLane="top1B4_0" departPos="5.10" departSpeed="10.00" departDelay="0.11" arrival="90.00" arrivalLane="A4top0_0" arrivalPos="286.40" arrivalSpeed="13.76" duration="71.00" routeLength="858.56" waitingTime="0.00" waitingCount="0" stopTime="0.00" timeLoss="7.78" rerouteNo="0" devices="tripinfo_OD128_RV.0" vType="RV" speedFactor="1.00" vaporized=""/>
    <tripinfo id="OD343_NV.0" depart="14.00" departLane="right4E4_0" departPos="5.10" departSpeed="10.00" departDelay="0.29" arrival="91.00" arrivalLane="D4top3_0" arrivalPos="286.40" arrivalSpeed="12.99" duration="77.00" routeLength="876.73" waitingTime="0.00" waitingCount="0" stopTime="0.00" timeLoss="12.07" rerouteNo="0" devices="tripinfo_OD343_NV.0" vType="NV" speedFactor="1.00" vaporized=""/>
    <tripinfo id="OD68_NV.0" depart="20.00" departLane="top3D4_0" departPos="5.10" departSpeed="10.00" departDelay="0.38" arrival="91.00" arrivalLane="C4top2_0" arrivalPos="286.40" arrivalSpeed="12.55" duration="71.00" routeLength="858.56" waitingTime="0.00" waitingCount="0" stopTime="0.00" timeLoss="7.16" rerouteNo="0" devices="tripinfo_OD68_NV.0" vType="NV" speedFactor="1.00" vaporized=""/>
    <tripinfo id="OD214_NV.0" depart="9.00" departLane="bottom4E0_0" departPos="5.10" departSpeed="10.00" departDelay="0.89" arrival="92.00" arrivalLane="D0bottom3_2" arrivalPos="286.40" arrivalSpeed="13.67" duration="83.00" routeLength="889.52" waitingTime="4.00" waitingCount="1" stopTime="0.00" timeLoss="17.19" rerouteNo="0" devices="tripinfo_OD214_NV.0" vType="NV" speedFactor="1.00" vaporized=""/>
    <tripinfo id="OD53_NV.0" depart="44.00" departLane="right0E0_0" departPos="5.10" departSpeed="10.00" departDelay="0.57" arrival="93.00" arrivalLane="E0bottom4_2" arrivalPos="286.40" arrivalSpeed="13.46" duration="49.00" routeLength="592.21" waitingTime="0.00" waitingCount="0" stopTime="0.00" timeLoss="5.52" rerouteNo="0" devices="tripinfo_OD53_NV.0" vType="NV" speedFactor="1.00" vaporized=""/>
    <tripinfo id="OD359_NV.1" depart="46.00" departLane="right4E4_0" departPos="5.10" departSpeed="10.00" departDelay="0.10" arrival="93.00" arrivalLane="E4top4_0" arrivalPos="286.40" arrivalSpeed="13.43" duration="47.00" routeLength="576.73" waitingTime="0.00" waitingCount="0" stopTime="0.00" timeLoss="4.58" rerouteNo="0" devices="tripinfo_OD359_NV.1" vType="NV" speedFactor="1.00" vaporized=""/>
    <tripinfo id="OD214_NV.1" depart="10.00" departLane="bottom4E0_0" departPos="5.10" departSpeed="10.00" departDelay="1.31" arrival="94.00" arrivalLane="D0bottom3_2" arrivalPos="286.40" arrivalSpeed="12.46" duration="84.00" routeLength="889.52" waitingTime="3.00" waitingCount="1" stopTime="0.00" timeLoss="17.87" rerouteNo="0" devices="tripinfo_OD214_NV.1" vType="NV" speedFactor="1.00" vaporized=""/>
    <tripinfo id="OD105_RV.0" depart="24.00" departLane="right3E3_0" departPos="5.10" departSpeed="10.00" departDelay="0.00" arrival="95.00" arrivalLane="E4right4_0" arrivalPos="286.40" arrivalSpeed="13.35" duration="71.00" routeLength="858.56" waitingTime="0.00" waitingCount="0" stopTime="0.00" timeLoss="7.53" rerouteNo="0" devices="tripinfo_OD105_RV.0" vType="RV" speedFactor="1.00" vaporized=""/>
    <tripinfo id="OD116_NV.0" depart="14.00" departLane="top1B4_0" departPos="5.10" departSpeed="10.00" departDelay="0.19" arrival="96.00" arrivalLane="A4left4_1" arrivalPos="286.40" arrivalSpeed="13.50" duration="82.00" routeLength="876.73" waitingTime="7.00" waitingCount="1" stopTime="0.00" timeLoss="17.59" rerouteNo="0" devices="tripinfo_OD116_NV.0" vType="NV" speedFactor="1.00" vaporized=""/>
    <tripinfo id="OD189_NV.2" depart="26.00" departLane="left1A1_0" departPos="5.10" departSpeed="10.00" departDelay="1.02" arrival="97.00" arrivalLane="A0left0_0" arrivalPos="286.40" arrivalSpeed="13.87" duration="71.00" routeLength="858.56" waitingTime="0.00" waitingCount="0" stopTime="0.00" timeLoss="7.42" rerouteNo="0" devices="tripinfo_OD189_NV.2" vType="NV" speedFactor="1.00" vaporized=""/>
    <tripinfo id="OD73_NV.0" depart="17.00" departLane="top3D4_0" departPos="5.10" departSpeed="10.00" departDelay="0.70" arrival="98.00" arrivalLane="E4top4_2" arrivalPos="286.40" arrivalSpeed="13.34" duration="81.00" routeLength="889.52" waitingTime="7.00" waitingCount="1" stopTime="0.00" timeLoss="14.99" rerouteNo="0" devices="tripinfo_OD73_NV.0" vType="NV" speedFactor="1.00" vaporized=""/>
    <tripinfo id="OD158_NV.0" depart="4.00" departLane="top0A4_0" departPos="5.10" departSpeed="10.00" departDelay="0.74" arrival="106.00" arrivalLane="B4top1_2" arrivalPos="286.40" arrivalSpeed="13.11" duration="102.00" routeLength="889.52" waitingTime="26.00" waitingCount="1" stopTime="0.00" timeLoss="36.55" rerouteNo="0" devices="tripinfo_OD158_NV.0" vType="NV" speedFactor="1.00" vaporized=""/>
    <tripinfo id="OD198_NV.0" depart="14.00" departLane="right1E1_0" departPos="5.10" departSpeed="10.00" departDelay="1.02" arrival="107.00" arrivalLane="E0right0_2" arrivalPos="286.40" arrivalSpeed="12.55" duration="93.00" routeLength="889.52" waitingTime="12.00" waitingCount="2" stopTime="0.00" timeLoss="27.18" rerouteNo="0" devices="tripinfo_OD198_NV.0" vType="NV" speedFactor="1.00" vaporized=""/>
    <tripinfo id="OD158_NV.1" depart="12.00" departLane="top0A4_0" departPos="5.10" departSpeed="10.00" departDelay="0.11" arrival="108.00" arrivalLane="B4top1_2" arrivalPos="286.40" arrivalSpeed="13.16" duration="96.00" routeLength="889.52" waitingTime="21.00" waitingCount="1" stopTime="0.00" timeLoss="30.93" rerouteNo="0" devices="tripinfo_OD158_NV.1" vType="NV" speedFactor="1.00" vaporized=""/>
    <tripinfo id="OD150_NV.0" depart="12.00" departLane="bottom1B0_0" departPos="5.10" departSpeed="10.00" departDelay="0.31" arrival="109.00" arrivalLane="A0bottom0_2" arrivalPos="286.40" arrivalSpeed="12.41" duration="97.00" routeLength="889.52" waitingTime="17.00" waitingCount="2" stopTime="0.00" timeLoss="31.13" rerouteNo="0" devices="tripinfo_OD150_NV.0" vType="NV" speedFactor="1.00" vaporized=""/>
    <tripinfo id="OD19_NV.0" depart="40.00" departLane="left3A3_0" departPos="5.10" departSpeed="10.00" departDelay="0.68" arrival="111.00" arrivalLane="A2left2_0" arrivalPos="286.40" arrivalSpeed="12.89" duration="71.00" routeLength="858.56" waitingTime="0.00" waitingCount="0" stopTime="0.00" timeLoss="6.89" rerouteNo="0" devices="tripinfo_OD19_NV.0" vType="NV" speedFactor="1.00" vaporized=""/>
    <tripinfo id="OD197_NV.0" depart="40.00" departLane="right1E1_0" departPos="5.10" departSpeed="10.00" departDelay="0.23" arrival="111.00" arrivalLane="E2right2_0" arrivalPos="286.40" arrivalSpeed="13.51" duration="71.00" routeLength="858.56" waitingTime="0.00" waitingCount="0" stopTime="0.00" timeLoss="7.73" rerouteNo="0" devices="tripinfo_OD197_NV.0" vType="NV" speedFactor="1.00" vaporized=""/>
    <tripinfo id="OD154_NV.0" depart="64.00" departLane="top0A4_0" departPos="5.10" departSpeed="10.00" departDelay="0.85" arrival="111.00" arrivalLane="A4left4_0" arrivalPos="286.40" arrivalSpeed="13.36" duration="47.00" routeLength="576.73" waitingTime="0.00" waitingCount="0" stopTime="0.00" timeLoss="4.58" rerouteNo="0" devices="tripinfo_OD154_NV.0" vType="NV" speedFactor="1.00" vaporized=""/>
    <tripinfo id="OD298_RV.0" depart="40.00" departLane="right2E2_0" departPos="5.10" departSpeed="10.00" departDelay="0.49" arrival="112.00" arrivalLane="E3right3_0" arrivalPos="286.40" arrivalSpeed="12.94" duration="72.00" routeLength="858.56" waitingTime="0.00" waitingCount="0" stopTime="0.00" timeLoss="7.76" rerouteNo="0" devices="tripinfo_OD298_RV.0" vType="RV" speedFactor="1.00" vaporized=""/>
    <tripinfo id="OD301_NV.0" depart="12.00" departLane="right2E2_0" departPos="5.10" departSpeed="10.00" departDelay="0.81" arrival="118.00" arrivalLane="E4top4_1" arrivalPos="286.40" arrivalSpeed="13.03" duration="106.00" routeLength="1176.73" waitingTime="7.00" waitingCount="1" stopTime="0.00" timeLoss="20.05" rerouteNo="0" devices="tripinfo_OD301_NV.0" vType="NV" speedFactor="1.00" vaporized=""/>
    <tripinfo id="OD205_NV.0" depart="19.00" departLane="right1E1_0" departPos="5.10" departSpeed="10.00" departDelay="0.46" arrival="120.00" arrivalLane="E0bottom4_1" arrivalPos="286.40" arrivalSpeed="13.37" duration="101.00" routeLength="892.21" waitingTime="21.00" waitingCount="2" stopTime="0.00" timeLoss="35.81" rerouteNo="0" devices="tripinfo_OD205_NV.0" vType="NV" speedFactor="1.00" vaporized=""/>
    <tripinfo id="OD300_RV.0" depart="1.00" departLane="right2E2_0" departPos="5.10" departSpeed="10.00" departDelay="0.26" arrival="122.00" arrivalLane="E0bottom4_1" arrivalPos="286.40" arrivalSpeed="13.51" duration="121.00" routeLength="1192.21" waitingTime="19.00" waitingCount="2" stopTime="0.00" timeLoss="33.93" rerouteNo="0" devices="tripinfo_OD300_RV.0" vType="RV" speedFactor="1.00" vaporized=""/>
    <tripinfo id="OD246_NV.0" depart="8.00" departLane="bottom0A0_0" departPos="5.10" departSpeed="10.00" departDelay="0.65" arrival="122.00" arrivalLane="A0left0_2" arrivalPos="286.40" arrivalSpeed="12.65" duration="114.00" routeLength="592.21" waitingTime="62.00" waitingCount="1" stopTime="0.00" timeLoss="70.30" rerouteNo="0" devices="tripinfo_OD246_NV.0" vType="NV" speedFactor="1.00" vaporized=""/>
    <tripinfo id="OD307_NV.0" depart="26.00" departLane="left0A0_0" departPos="5.10" departSpeed="10.00" departDelay="0.53" arrival="123.00" arrivalLane="B0bottom1_0" arrivalPos="286.40" arrivalSpeed="13.42" duration="97.00" routeLength="876.73" waitingTime="21.00" waitingCount="1" stopTime="0.00" timeLoss="32.76" rerouteNo="0" devices="tripinfo_OD307_NV.0" vType="NV" speedFactor="1.00" vaporized=""/>
    <tripinfo id="OD321_NV.0" depart="78.00" departLane="left0A0_0" departPos="5.10" departSpeed="10.00" departDelay="0.12" arrival="124.00" arrivalLane="A0bottom0_0" arrivalPos="286.40" arrivalSpeed="13.31" duration="46.00" routeLength="576.73" waitingTime="0.00" waitingCount="0" stopTime="0.00" timeLoss="3.96" rerouteNo="0" devices="tripinfo_OD321_NV.0" vType="NV" speedFactor="1.00" vaporized=""/>
    <tripinfo id="OD327_NV.0" depart="11.00" departLane="bottom3D0_0" departPos="5.10" departSpeed="10.00" departDelay="0.04" arrival="125.00" arrivalLane="E1right1_1" arrivalPos="286.40" arrivalSpeed="12.42" duration="114.00" routeLength="1176.73" waitingTime="10.00" waitingCount="2" stopTime="0.00" timeLoss="27.72" rerouteNo="0" devices="tripinfo_OD327_NV.0" vType="NV" speedFactor="1.00" vaporized=""/>
    <tripinfo id="OD28_NV.0" depart="21.00" departLane="left3A3_0" departPos="5.10" departSpeed="10.00" departDelay="0.85" arrival="131.00" arrivalLane="A1left1_0" arrivalPos="286.40" arrivalSpeed="12.98" duration="110.00" routeLength="1158.56" waitingTime="11.00" waitingCount="1" stopTime="0.00" timeLoss="24.91" rerouteNo="0" devices="tripinfo_OD28_NV.0" vType="NV" speedFactor="1.00" vaporized=""/>
    <tripinfo id="OD128_NV.0" depart="61.00" departLane="top1B4_0" departPos="5.10" departSpeed="10.00" departDelay="0.94" arrival="132.00" arrivalLane="A4top0_0" arrivalPos="286.40" arrivalSpeed="13.08" duration="71.00" routeLength="858.56" waitingTime="0.00" waitingCount="0" stopTime="0.00" timeLoss="7.41" rerouteNo="0" devices="tripinfo_OD128_NV.0" vType="NV" speedFactor="1.00" vaporized=""/>
    <tripinfo id="OD152_NV.0" depart="11.00" departLane="top0A4_0" departPos="5.10" departSpeed="10.00" departDelay="0.34" arrival="134.00" arrivalLane="A2left2_0" arrivalPos="286.40" arrivalSpeed="13.04" duration="123.00" routeLength="1176.73" waitingTime="19.00" waitingCount="2" stopTime="0.00" timeLoss="37.41" rerouteNo="0" devices="tripinfo_OD152_NV.0" vType="NV" speedFactor="1.00" vaporized=""/>
    <tripinfo id="OD33_RV.0" depart="10.00" departLane="left3A3_0" departPos="5.10" departSpeed="10.00" departDelay="0.93" arrival="135.00" arrivalLane="A4top0_1" arrivalPos="286.40" arrivalSpeed="13.59" duration="125.00" routeLength="892.21" waitingTime="52.00" waitingCount="1" stopTime="0.00" timeLoss="59.61" rerouteNo="0" devices="tripinfo_OD33_RV.0" vType="RV" speedFactor="1.00" vaporized=""/>
    <tripinfo id="OD359_NV.2" depart="89.00" departLane="right4E4_0" departPos="5.10" departSpeed="10.00" departDelay="0.73" arrival="136.00" arrivalLane="E4top4_0" arrivalPos="286.40" arrivalSpeed="12.51" duration="47.00" routeLength="576.73" waitingTime="0.00" waitingCount="0" stopTime="0.00" timeLoss="4.22" rerouteNo="0" devices="tripinfo_OD359_NV.2" vType="NV" speedFactor="1.00" vaporized=""/>
    <tripinfo id="OD138_NV.0" depart="13.00" departLane="bottom1B0_0" departPos="5.10" departSpeed="10.00" departDelay="1.18" arrival="137.00" arrivalLane="D0bottom3_0" arrivalPos="286.40" arrivalSpeed="12.87" duration="124.00" routeLength="1158.56" waitingTime="25.00" waitingCount="1" stopTime="0.00" timeLoss="38.84" rerouteNo="0" devices="tripinfo_OD138_NV.0" vType="NV" speedFactor="1.00" vaporized=""/>
    <tripinfo id="OD33_NV.0" depart="43.00" departLane="left3A3_0" departPos="5.10" departSpeed="10.00" departDelay="0.91" arrival="137.00" arrivalLane="A4top0_1" arrivalPos="286.40" arrivalSpeed="13.89" duration="94.00" routeLength="892.21" waitingTime="18.00" waitingCount="1" stopTime="0.00" timeLoss="28.41" rerouteNo="0" devices="tripinfo_OD33_NV.0" vType="NV" speedFactor="1.00" vaporized=""/>
    <tripinfo id="OD185_NV.0" depart="2.00" departLane="left1A1_0" departPos="5.10" departSpeed="10.00" departDelay="0.70" arrival="138.00" arrivalLane="A4top0_1" arrivalPos="286.40" arrivalSpeed="12.95" duration="136.00" routeLength="1492.21" waitingTime="9.00" waitingCount="2" stopTime="0.00" timeLoss="27.84" rerouteNo="0" devices="tripinfo_OD185_NV.0" vType="NV" speedFactor="1.00" vaporized=""/>
    <tripinfo id="OD28_NV.1" depart="44.00" departLane="left3A3_0" departPos="5.10" departSpeed="10.00" departDelay="1.21" arrival="138.00" arrivalLane="A1left1_0" arrivalPos="286.40" arrivalSpeed="12.74" duration="94.00" routeLength="1158.56" waitingTime="0.00" waitingCount="0" stopTime="0.00" timeLoss="8.46" rerouteNo="0" devices="tripinfo_OD28_NV.1" vType="NV" speedFactor="1.00" vaporized=""/>
    <tripinfo id="OD151_NV.0" depart="54.00" departLane="bottom1B0_0" departPos="5.10" departSpeed="10.00" departDelay="0.10" arrival="138.00" arrivalLane="A0left0_1" arrivalPos="286.40" arrivalSpeed="13.75" duration="84.00" routeLength="892.21" waitingTime="11.00" waitingCount="1" stopTime="0.00" timeLoss="18.93" rerouteNo="0" devices="tripinfo_OD151_NV.0" vType="NV" speedFactor="1.00" vaporized=""/>
    <tripinfo id="OD252_NV.1" depart="68.00" departLane="bottom2C0_0" departPos="5.10" departSpeed="10.00" departDelay="1.20" arrival="139.00" arrivalLane="D0bottom3_0" arrivalPos="286.40" arrivalSpeed="13.58" duration="71.00" routeLength="858.56" waitingTime="0.00" waitingCount="0" stopTime="0.00" timeLoss="7.59" rerouteNo="0" devices="tripinfo_OD252_NV.1" vType="NV" speedFactor="1.00" vaporized=""/>
    <tripinfo id="OD309_NV.0" depart="3.00" departLane="left0A0_0" departPos="5.10" departSpeed="10.00" departDelay="0.48" arrival="143.00" arrivalLane="D0bottom3_0" arrivalPos="286.40" arrivalSpeed="13.52" duration="140.00" routeLength="1476.73" waitingTime="8.00" waitingCount="2" stopTime="0.00" timeLoss="32.24" rerouteNo="0" devices="tripinfo_OD309_NV.0" vType="NV" speedFactor="1.00" vaporized=""/>
    <tripinfo id="OD339_NV.0" depart="73.00" departLane="bottom3D0_0" departPos="5.10" departSpeed="10.00" departDelay="0.52" arrival="143.00" arrivalLane="E0bottom4_0" arrivalPos="286.40" arrivalSpeed="12.65" duration="70.00" routeLength="858.56" waitingTime="0.00" waitingCount="0" stopTime="0.00" timeLoss="6.72" rerouteNo="0" devices="tripinfo_OD339_NV.0" vType="NV" speedFactor="1.00" vaporized=""/>
    <tripinfo id="OD214_NV.2" depart="41.00" departLane="bottom4E0_0" departPos="5.10" departSpeed="10.00" departDelay="0.68" arrival="144.00" arrivalLane="D0bottom3_2" arrivalPos="286.40" arrivalSpeed="12.77" duration="103.00" routeLength="889.52" waitingTime="25.00" waitingCount="2" stopTime="0.00" timeLoss="37.19" rerouteNo="0" devices="tripinfo_OD214_NV.2" vType="NV" speedFactor="1.00" vaporized=""/>
    <tripinfo id="OD309_RV.0" depart="6.00" departLane="left0A0_0" departPos="5.10" departSpeed="10.00" departDelay="1.20" arrival="146.00" arrivalLane="D0bottom3_0" arrivalPos="286.40" arrivalSpeed="13.42" duration="140.00" routeLength="1476.73" waitingTime="4.00" waitingCount="2" stopTime="0.00" timeLoss="32.04" rerouteNo="0" devices="tripinfo_OD309_RV.0" vType="RV" speedFactor="1.00" vaporized=""/>
    <tripinfo id="OD293_RV.0" depart="27.00" departLane="right2E2_0" departPos="5.10" departSpeed="10.00" departDelay="0.58" arrival="146.00" arrivalLane="E0right0_2" arrivalPos="286.40" arrivalSpeed="13.70" duration="119.00" routeLength="1189.52" waitingTime="17.00" waitingCount="2" stopTime="0.00" timeLoss="31.30" rerouteNo="0" devices="tripinfo_OD293_RV.0" vType="RV" speedFactor="1.00" vaporized=""/>
    <tripinfo id="OD214_NV.3" depart="64.00" departLane="bottom4E0_0" departPos="5.10" departSpeed="10.00" departDelay="0.10" arrival="146.00" arrivalLane="D0bottom3_2" arrivalPos="286.40" arrivalSpeed="12.79" duration="82.00" routeLength="889.52" waitingTime="6.00" waitingCount="1" stopTime="0.00" timeLoss="16.74" rerouteNo="0" devices="tripinfo_OD214_NV.3" vType="NV" speedFactor="1.00" vaporized=""/>
    <tripinfo id="OD290_NV.0" depart="4.00" departLane="right2E2_0" departPos="5.10" departSpeed="10.00" departDelay="1.51" arrival="148.00" arrivalLane="D0bottom3_2" arrivalPos="286.40" arrivalSpeed="13.26" duration="144.00" routeLength="1471.35" waitingTime="13.00" waitingCount="2" stopTime="0.00" timeLoss="35.71" rerouteNo="0" devices="tripinfo_OD290_NV.0" vType="NV" speedFactor="1.00" vaporized=""/>
    <tripinfo id="OD367_NV.0" depart="78.00" departLane="top2C4_0" departPos="5.10" departSpeed="10.00" departDelay="0.11" arrival="148.00" arrivalLane="B4top1_0" arrivalPos="286.40" arrivalSpeed="13.56" duration="70.00" routeLength="858.56" waitingTime="0.00" waitingCount="0" stopTime="0.00" timeLoss="6.73" rerouteNo="0" devices="tripinfo_OD367_NV.0" vType="NV" speedFactor="1.00" vaporized=""/>
    <tripinfo id="OD231_RV.0" depart="80.00" departLane="bottom0A0_0" departPos="5.10" departSpeed="10.00" departDelay="0.82" arrival="150.00" arrivalLane="B0bottom1_0" arrivalPos="286.40" arrivalSpeed="12.45" duration="70.00" routeLength="858.56" waitingTime="0.00" waitingCount="0" stopTime="0.00" timeLoss="6.55" rerouteNo="0" devices="tripinfo_OD231_RV.0" vType="RV" speedFactor="1.00" vaporized=""/>
    <tripinfo id="OD37_RV.0" depart="7.00" departLane="left3A3_0" departPos="5.10" departSpeed="10.00" departDelay="0.45" arrival="151.00" arrivalLane="A0left0_0" arrivalPos="286.40" arrivalSpeed="13.29" duration="144.00" routeLength="1458.56" waitingTime="17.00" waitingCount="1" stopTime="0.00" timeLoss="37.31" rerouteNo="0" devices="tripinfo_OD37_RV.0" vType="RV" speedFactor="1.00" vaporized=""/>
    <tripinfo id="OD3_NV.0" depart="8.00" departLane="top4E4_0" departPos="5.10" departSpeed="10.00" departDelay="0.36" arrival="151.00" arrivalLane="E1right1_2" arrivalPos="286.40" arrivalSpeed="13.80" duration="143.00" routeLength="1492.21" waitingTime="12.00" waitingCount="1" stopTime="0.00" timeLoss="34.59" rerouteNo="0" devices="tripinfo_OD3_NV.0" vType="NV" speedFactor="1.00" vaporized=""/>
    <tripinfo id="OD222_NV.0" depart="6.00" departLane="bottom4E0_0" departPos="5.10" departSpeed="10.00" departDelay="0.32" arrival="152.00" arrivalLane="C0bottom2_2" arrivalPos="286.40" arrivalSpeed="12.97" duration="146.00" routeLength="1189.52" waitingTime="39.00" waitingCount="3" stopTime="0.00" timeLoss="58.51" rerouteNo="0" devices="tripinfo_OD222_NV.0" vType="NV" speedFactor="1.00" vaporized=""/>
    <tripinfo id="OD376_NV.0" depart="50.00" departLane="top2C4_0" departPos="5.10" departSpeed="10.00" departDelay="0.17" arrival="152.00" arrivalLane="A4top0_0" arrivalPos="286.40" arrivalSpeed="13.50" duration="102.00" routeLength="1158.56" waitingTime="4.00" waitingCount="1" stopTime="0.00" timeLoss="17.16" rerouteNo="0" devices="tripinfo_OD376_NV.0" vType="NV" speedFactor="1.00" vaporized=""/>
    <tripinfo id="OD276_NV.0" depart="83.00" departLane="left2A2_0" departPos="5.10" departSpeed="10.00" departDelay="0.27" arrival="154.00" arrivalLane="A1left1_0" arrivalPos="286.40" arrivalSpeed="13.49" duration="71.00" routeLength="858.56" waitingTime="0.00" waitingCount="0" stopTime="0.00" timeLoss="7.72" rerouteNo="0" devices="tripinfo_OD276_NV.0" vType="NV" speedFactor="1.00" vaporized=""/>
    <tripinfo id="OD203_NV.0" depart="6.00" departLane="right1E1_0" departPos="5.10" departSpeed="10.00" departDelay="0.89" arrival="155.00" arrivalLane="C0bottom2_2" arrivalPos="286.40" arrivalSpeed="12.85" duration="149.00" routeLength="1471.35" waitingTime="21.00" waitingCount="2" stopTime="0.00" timeLoss="40.48" rerouteNo="0" devices="tripinfo_OD203_NV.0" vType="NV" speedFactor="1.00" vaporized=""/>
    <tripinfo id="OD87_NV.0" depart="25.00" departLane="left4A4_0" departPos="5.10" departSpeed="10.00" departDelay="0.35" arrival="155.00" arrivalLane="C4top2_2" arrivalPos="286.40" arrivalSpeed="13.22" duration="130.00" routeLength="1192.21" waitingTime="26.00" waitingCount="2" stopTime="0.00" timeLoss="42.94" rerouteNo="0" devices="tripinfo_OD87_NV.0" vType="NV" speedFactor="1.00" vaporized=""/>
    <tripinfo id="OD203_NV.1" depart="13.00" departLane="right1E1_0" departPos="5.10" departSpeed="10.00" departDelay="0.75" arrival="156.00" arrivalLane="C0bottom2_2" arrivalPos="286.40" arrivalSpeed="13.43" duration="143.00" routeLength="1471.35" waitingTime="15.00" waitingCount="2" stopTime="0.00" timeLoss="35.25" rerouteNo="0" devices="tripinfo_OD203_NV.1" vType="NV" speedFactor="1.00" vaporized=""/>
    <tripinfo id="OD105_NV.0" depart="86.00" departLane="right3E3_0" departPos="5.10" departSpeed="10.00" departDelay="0.29" arrival="157.00" arrivalLane="E4right4_0" arrivalPos="286.40" arrivalSpeed="13.79" duration="71.00" routeLength="858.56" waitingTime="0.00" waitingCount="0" stopTime="0.00" timeLoss="6.32" rerouteNo="0" devices="tripinfo_OD105_NV.0" vType="NV" speedFactor="1.00" vaporized=""/>
    <tripinfo id="OD307_NV.1" depart="71.00" departLane="left0A0_0" departPos="5.10" departSpeed="10.00" departDelay="0.19" arrival="159.00" arrivalLane="B0bottom1_0" arrivalPos="286.40" arrivalSpeed="12.82" duration="88.00" routeLength="876.73" waitingTime="13.00" waitingCount="1" stopTime="0.00" timeLoss="23.56" rerouteNo="0" devices="tripinfo_OD307_NV.1" vType="NV" speedFactor="1.00" vaporized=""/>
    <tripinfo id="OD197_NV.1" depart="88.00" departLane="right1E1_0" departPos="5.10" departSpeed="10.00" departDelay="4.07" arrival="160.00" arrivalLane="E2right2_0" arrivalPos="286.40" arrivalSpeed="13.60" duration="72.00" routeLength="858.56" waitingTime="0.00" waitingCount="0" stopTime="0.00" timeLoss="8.20" rerouteNo="0" devices="tripinfo_OD197_NV.1" vType="NV" speedFactor="1.00" vaporized=""/>
    <tripinfo id="OD105_NV.1" depart="89.00" departLane="right3E3_0" departPos="5.10" departSpeed="10.00" departDelay="0.83" arrival="160.00" arrivalLane="E4right4_0" arrivalPos="286.40" arrivalSpeed="13.84" duration="71.00" routeLength="858.56" waitingTime="0.00" waitingCount="0" stopTime="0.00" timeLoss="6.88" rerouteNo="0" devices="tripinfo_OD105_NV.1" vType="NV" speedFactor="1.00" vaporized=""/>
    <tripinfo id="OD298_NV.1" depart="89.00" departLane="right2E2_0" departPos="5.10" departSpeed="10.00" departDelay="0.60" arrival="160.00" arrivalLane="E3right3_0" arrivalPos="286.40" arrivalSpeed="13.58" duration="71.00" routeLength="858.56" waitingTime="0.00" waitingCount="0" stopTime="0.00" timeLoss="7.97" rerouteNo="0" devices="tripinfo_OD298_NV.1" vType="NV" speedFactor="1.00" vaporized=""/>
    <tripinfo id="OD339_NV.1" depart="89.00" departLane="bottom3D0_0" departPos="5.10" departSpeed="10.00" departDelay="0.59" arrival="160.00" arrivalLane="E0bottom4_0" arrivalPos="286.40" arrivalSpeed="13.84" duration="71.00" routeLength="858.56" waitingTime="0.00" waitingCount="0" stopTime="0.00" timeLoss="7.04" rerouteNo="0" devices="tripinfo_OD339_NV.1" vType="NV" speedFactor="1.00" vaporized=""/>
    <tripinfo id="OD189_NV.3" depart="89.00" departLane="left1A1_0" departPos="5.10" departSpeed="10.00" departDelay="0.09" arrival="160.00" arrivalLane="A0left0_0" arrivalPos="286.40" arrivalSpeed="13.03" duration="71.00" routeLength="858.56" waitingTime="0.00" waitingCount="0" stopTime="0.00" timeLoss="7.54" rerouteNo="0" devices="tripinfo_OD189_NV.3" vType="NV" speedFactor="1.00" vaporized=""/>
    <tripinfo id="OD348_NV.0" depart="4.00" departLane="right4E4_0" departPos="5.10" departSpeed="10.00" departDelay="1.63" arrival="161.00" arrivalLane="B4top1_0" arrivalPos="286.40" arrivalSpeed="13.62" duration="157.00" routeLength="1476.73" waitingTime="25.00" waitingCount="3" stopTime="0.00" timeLoss="49.65" rerouteNo="0" devices="tripinfo_OD348_NV.0" vType="NV" speedFactor="1.00" vaporized=""/>
    <tripinfo id="OD283_RV.0" depart="22.00" departLane="left2A2_0" departPos="5.10" departSpeed="10.00" departDelay="1.14" arrival="161.00" arrivalLane="A0bottom0_1" arrivalPos="286.40" arrivalSpeed="13.84" duration="139.00" routeLength="1176.73" waitingTime="34.00" waitingCount="2" stopTime="0.00" timeLoss="52.39" rerouteNo="0" devices="tripinfo_OD283_RV.0" vType="RV" speedFactor="1.00" vaporized=""/>
    <tripinfo id="OD363_RV.0" depart="42.00" departLane="top2C4_0" departPos="5.10" departSpeed="10.00" departDelay="1.70" arrival="161.00" arrivalLane="A4left4_1" arrivalPos="286.40" arrivalSpeed="12.55" duration="119.00" routeLength="1176.73" waitingTime="18.00" waitingCount="2" stopTime="0.00" timeLoss="33.04" rerouteNo="0" devices="tripinfo_OD363_RV.0" vType="RV" speedFactor="1.00" vaporized=""/>