<?xml version="1.0" encoding="UTF-8"?>

<!-- generated on 2025-02-26 18:44:47 by Eclipse SUMO sumo Version 1.20.0
<configuration xmlns:xsi="http://www.w3.org/2001/XMLSchema-instance" xsi:noNamespaceSchemaLocation="http://sumo.dlr.de/xsd/sumoConfiguration.xsd">

    <input>
        <net-file value="./envs/5x5/beta/5x5.net.xml"/>
        <route-files value="./envs/5x5/beta/Demand_250.rou.xml"/>
    </input>

    <output>
        <tripinfo-output value="./envs/5x5/beta/tripinfo_MP_250.xml"/>
    </output>

    <time>
        <begin value="0"/>
    </time>

    <processing>
        <time-to-teleport value="-1"/>
        <waiting-time-memory value="1800"/>
    </processing>

    <report>
        <no-step-log value="true"/>
    </report>

    <traci_server>
        <remote-port value="63758"/>
    </traci_server>

</configuration>
-->

<tripinfos xmlns:xsi="http://www.w3.org/2001/XMLSchema-instance" xsi:noNamespaceSchemaLocation="http://sumo.dlr.de/xsd/tripinfo_file.xsd">
    <tripinfo id="OD19_NV.0" depart="2.00" departLane="left3A3_0" departPos="5.10" departSpeed="10.00" departDelay="0.73" arrival="72.00" arrivalLane="A2left2_0" arrivalPos="286.40" arrivalSpeed="13.76" duration="70.00" routeLength="858.56" waitingTime="0.00" waitingCount="0" stopTime="0.00" timeLoss="5.83" rerouteNo="0" devices="tripinfo_OD19_NV.0" vType="NV" speedFactor="1.00" vaporized=""/>
    <tripinfo id="OD367_RV.0" depart="4.00" departLane="top2C4_0" departPos="5.10" departSpeed="10.00" departDelay="1.04" arrival="74.00" arrivalLane="B4top1_0" arrivalPos="286.40" arrivalSpeed="13.24" duration="70.00" routeLength="858.56" waitingTime="0.00" waitingCount="0" stopTime="0.00" timeLoss="6.69" rerouteNo="0" devices="tripinfo_OD367_RV.0" vType="RV" speedFactor="1.00" vaporized=""/>
    <tripinfo id="OD33_NV.0" depart="10.00" departLane="left3A3_0" departPos="5.10" departSpeed="10.00" departDelay="0.93" arrival="80.00" arrivalLane="A4top0_1" arrivalPos="286.40" arrivalSpeed="13.30" duration="70.00" routeLength="892.21" waitingTime="0.00" waitingCount="0" stopTime="0.00" timeLoss="4.39" rerouteNo="0" devices="tripinfo_OD33_NV.0" vType="NV" speedFactor="1.00" vaporized=""/>
    <tripinfo id="OD321_RV.0" depart="34.00" departLane="left0A0_0" departPos="5.10" departSpeed="10.00" departDelay="0.29" arrival="81.00" arrivalLane="A0bottom0_0" arrivalPos="286.40" arrivalSpeed="13.45" duration="47.00" routeLength="576.73" waitingTime="0.00" waitingCount="0" stopTime="0.00" timeLoss="3.92" rerouteNo="0" devices="tripinfo_OD321_RV.0" vType="RV" speedFactor="1.00" vaporized=""/>
    <tripinfo id="OD188_NV.0" depart="8.00" departLane="left1A1_0" departPos="5.10" departSpeed="10.00" departDelay="0.02" arrival="84.00" arrivalLane="A0bottom0_1" arrivalPos="286.40" arrivalSpeed="12.73" duration="76.00" routeLength="876.73" waitingTime="1.00" waitingCount="1" stopTime="0.00" timeLoss="11.82" rerouteNo="0" devices="tripinfo_OD188_NV.0" vType="NV" speedFactor="1.00" vaporized=""/>
    <tripinfo id="OD213_RV.0" depart="9.00" departLane="bottom4E0_0" departPos="5.10" departSpeed="10.00" departDelay="0.89" arrival="86.00" arrivalLane="E1right1_0" arrivalPos="286.40" arrivalSpeed="12.74" duration="77.00" routeLength="876.73" waitingTime="1.00" waitingCount="1" stopTime="0.00" timeLoss="12.47" rerouteNo="0" devices="tripinfo_OD213_RV.0" vType="RV" speedFactor="1.00" vaporized=""/>
    <tripinfo id="OD188_RV.0" depart="13.00" departLane="left1A1_0" departPos="5.10" departSpeed="10.00" departDelay="0.53" arrival="86.00" arrivalLane="A0bottom0_1" arrivalPos="286.40" arrivalSpeed="12.97" duration="73.00" routeLength="876.73" waitingTime="0.00" waitingCount="0" stopTime="0.00" timeLoss="8.59" rerouteNo="0" devices="tripinfo_OD188_RV.0" vType="RV" speedFactor="1.00" vaporized=""/>
    <tripinfo id="OD197_NV.0" depart="14.00" departLane="right1E1_0" departPos="5.10" departSpeed="10.00" departDelay="1.02" arrival="86.00" arrivalLane="E2right2_0" arrivalPos="286.40" arrivalSpeed="12.78" duration="72.00" routeLength="858.56" waitingTime="0.00" waitingCount="0" stopTime="0.00" timeLoss="8.13" rerouteNo="0" devices="tripinfo_OD197_NV.0" vType="NV" speedFactor="1.00" vaporized=""/>
    <tripinfo id="OD298_NV.0" depart="15.00" departLane="right2E2_0" departPos="5.10" departSpeed="10.00" departDelay="0.52" arrival="86.00" arrivalLane="E3right3_0" arrivalPos="286.40" arrivalSpeed="13.77" duration="71.00" routeLength="858.56" waitingTime="0.00" waitingCount="0" stopTime="0.00" timeLoss="7.38" rerouteNo="0" devices="tripinfo_OD298_NV.0" vType="NV" speedFactor="1.00" vaporized=""/>
    <tripinfo id="OD307_RV.0" depart="9.00" departLane="left0A0_0" departPos="5.10" departSpeed="10.00" departDelay="3.39" arrival="88.00" arrivalLane="B0bottom1_0" arrivalPos="286.40" arrivalSpeed="13.30" duration="79.00" routeLength="876.73" waitingTime="0.00" waitingCount="0" stopTime="0.00" timeLoss="14.74" rerouteNo="0" devices="tripinfo_OD307_RV.0" vType="RV" speedFactor="1.00" vaporized=""/>
    <tripinfo id="OD213_RV.1" depart="11.00" departLane="bottom4E0_0" departPos="5.10" departSpeed="10.00" departDelay="2.31" arrival="89.00" arrivalLane="E1right1_0" arrivalPos="286.40" arrivalSpeed="13.01" duration="78.00" routeLength="876.73" waitingTime="1.00" waitingCount="1" stopTime="0.00" timeLoss="13.27" rerouteNo="0" devices="tripinfo_OD213_RV.1" vType="RV" speedFactor="1.00" vaporized=""/>
    <tripinfo id="OD343_NV.0" depart="14.00" departLane="right4E4_0" departPos="5.10" departSpeed="10.00" departDelay="0.29" arrival="89.00" arrivalLane="D4top3_0" arrivalPos="286.40" arrivalSpeed="12.51" duration="75.00" routeLength="876.73" waitingTime="0.00" waitingCount="0" stopTime="0.00" timeLoss="10.46" rerouteNo="0" devices="tripinfo_OD343_NV.0" vType="NV" speedFactor="1.00" vaporized=""/>
    <tripinfo id="OD217_NV.0" depart="42.00" departLane="bottom4E0_0" departPos="5.10" departSpeed="10.00" departDelay="1.22" arrival="89.00" arrivalLane="E0right0_0" arrivalPos="286.40" arrivalSpeed="12.70" duration="47.00" routeLength="576.73" waitingTime="0.00" waitingCount="0" stopTime="0.00" timeLoss="4.63" rerouteNo="0" devices="tripinfo_OD217_NV.0" vType="NV" speedFactor="1.00" vaporized=""/>
    <tripinfo id="OD128_NV.0" depart="19.00" departLane="top1B4_0" departPos="5.10" departSpeed="10.00" departDelay="0.11" arrival="90.00" arrivalLane="A4top0_0" arrivalPos="286.40" arrivalSpeed="13.69" duration="71.00" routeLength="858.56" waitingTime="0.00" waitingCount="0" stopTime="0.00" timeLoss="7.81" rerouteNo="0" devices="tripinfo_OD128_NV.0" vType="NV" speedFactor="1.00" vaporized=""/>
    <tripinfo id="OD359_NV.0" depart="46.00" departLane="right4E4_0" departPos="5.10" departSpeed="10.00" departDelay="0.10" arrival="93.00" arrivalLane="E4top4_0" arrivalPos="286.40" arrivalSpeed="12.97" duration="47.00" routeLength="576.73" waitingTime="0.00" waitingCount="0" stopTime="0.00" timeLoss="4.47" rerouteNo="0" devices="tripinfo_OD359_NV.0" vType="NV" speedFactor="1.00" vaporized=""/>
    <tripinfo id="OD105_NV.0" depart="24.00" departLane="right3E3_0" departPos="5.10" departSpeed="10.00" departDelay="0.00" arrival="94.00" arrivalLane="E4right4_0" arrivalPos="286.40" arrivalSpeed="13.35" duration="70.00" routeLength="858.56" waitingTime="0.00" waitingCount="0" stopTime="0.00" timeLoss="6.66" rerouteNo="0" devices="tripinfo_OD105_NV.0" vType="NV" speedFactor="1.00" vaporized=""/>
    <tripinfo id="OD151_NV.0" depart="11.00" departLane="bottom1B0_0" departPos="5.10" departSpeed="10.00" departDelay="0.34" arrival="97.00" arrivalLane="A0left0_1" arrivalPos="286.40" arrivalSpeed="12.45" duration="86.00" routeLength="892.21" waitingTime="8.00" waitingCount="2" stopTime="0.00" timeLoss="20.55" rerouteNo="0" devices="tripinfo_OD151_NV.0" vType="NV" speedFactor="1.00" vaporized=""/>
    <tripinfo id="OD250_RV.0" depart="15.00" departLane="bottom2C0_0" departPos="5.10" departSpeed="10.00" departDelay="2.20" arrival="97.00" arrivalLane="B0bottom1_2" arrivalPos="286.40" arrivalSpeed="12.76" duration="82.00" routeLength="889.52" waitingTime="7.00" waitingCount="1" stopTime="0.00" timeLoss="16.70" rerouteNo="0" devices="tripinfo_OD250_RV.0" vType="RV" speedFactor="1.00" vaporized=""/>
    <tripinfo id="OD367_NV.0" depart="26.00" departLane="top2C4_0" departPos="5.10" departSpeed="10.00" departDelay="0.50" arrival="97.00" arrivalLane="B4top1_0" arrivalPos="286.40" arrivalSpeed="13.32" duration="71.00" routeLength="858.56" waitingTime="0.00" waitingCount="0" stopTime="0.00" timeLoss="7.65" rerouteNo="0" devices="tripinfo_OD367_NV.0" vType="NV" speedFactor="1.00" vaporized=""/>
    <tripinfo id="OD90_NV.0" depart="36.00" departLane="left4A4_0" departPos="5.10" departSpeed="10.00" departDelay="2.13" arrival="98.00" arrivalLane="A4top0_2" arrivalPos="286.40" arrivalSpeed="13.85" duration="62.00" routeLength="592.21" waitingTime="11.00" waitingCount="1" stopTime="0.00" timeLoss="18.12" rerouteNo="0" devices="tripinfo_OD90_NV.0" vType="NV" speedFactor="1.00" vaporized=""/>
    <tripinfo id="OD205_NV.0" depart="10.00" departLane="right1E1_0" departPos="5.10" departSpeed="10.00" departDelay="0.48" arrival="99.00" arrivalLane="E0bottom4_1" arrivalPos="286.40" arrivalSpeed="13.47" duration="89.00" routeLength="892.21" waitingTime="14.00" waitingCount="1" stopTime="0.00" timeLoss="23.44" rerouteNo="0" devices="tripinfo_OD205_NV.0" vType="NV" speedFactor="1.00" vaporized=""/>
    <tripinfo id="OD128_RV.0" depart="32.00" departLane="top1B4_0" departPos="5.10" departSpeed="10.00" departDelay="0.10" arrival="103.00" arrivalLane="A4top0_0" arrivalPos="286.40" arrivalSpeed="13.15" duration="71.00" routeLength="858.56" waitingTime="0.00" waitingCount="0" stopTime="0.00" timeLoss="6.55" rerouteNo="0" devices="tripinfo_OD128_RV.0" vType="RV" speedFactor="1.00" vaporized=""/>
    <tripinfo id="OD327_NV.0" depart="11.00" departLane="bottom3D0_0" departPos="5.10" departSpeed="10.00" departDelay="0.04" arrival="105.00" arrivalLane="E1right1_0" arrivalPos="286.40" arrivalSpeed="13.07" duration="94.00" routeLength="1155.87" waitingTime="0.00" waitingCount="0" stopTime="0.00" timeLoss="8.65" rerouteNo="0" devices="tripinfo_OD327_NV.0" vType="NV" speedFactor="1.00" vaporized=""/>
    <tripinfo id="OD67_RV.0" depart="20.00" departLane="top3D4_0" departPos="5.10" departSpeed="10.00" departDelay="0.38" arrival="109.00" arrivalLane="E4right4_1" arrivalPos="286.40" arrivalSpeed="13.64" duration="89.00" routeLength="892.21" waitingTime="15.00" waitingCount="1" stopTime="0.00" timeLoss="24.06" rerouteNo="0" devices="tripinfo_OD67_RV.0" vType="RV" speedFactor="1.00" vaporized=""/>
    <tripinfo id="OD188_RV.1" depart="26.00" departLane="left1A1_0" departPos="5.10" departSpeed="10.00" departDelay="1.02" arrival="110.00" arrivalLane="A0bottom0_1" arrivalPos="286.40" arrivalSpeed="12.51" duration="84.00" routeLength="876.73" waitingTime="8.00" waitingCount="1" stopTime="0.00" timeLoss="19.16" rerouteNo="0" devices="tripinfo_OD188_RV.1" vType="RV" speedFactor="1.00" vaporized=""/>
    <tripinfo id="OD19_NV.1" depart="40.00" departLane="left3A3_0" departPos="5.10" departSpeed="10.00" departDelay="0.68" arrival="111.00" arrivalLane="A2left2_0" arrivalPos="286.40" arrivalSpeed="12.73" duration="71.00" routeLength="858.56" waitingTime="0.00" waitingCount="0" stopTime="0.00" timeLoss="7.70" rerouteNo="0" devices="tripinfo_OD19_NV.1" vType="NV" speedFactor="1.00" vaporized=""/>
    <tripinfo id="OD298_NV.1" depart="40.00" departLane="right2E2_0" departPos="5.10" departSpeed="10.00" departDelay="0.49" arrival="111.00" arrivalLane="E3right3_0" arrivalPos="286.40" arrivalSpeed="13.42" duration="71.00" routeLength="858.56" waitingTime="0.00" waitingCount="0" stopTime="0.00" timeLoss="7.19" rerouteNo="0" devices="tripinfo_OD298_NV.1" vType="NV" speedFactor="1.00" vaporized=""/>
    <tripinfo id="OD202_NV.0" depart="6.00" departLane="right1E1_0" departPos="5.10" departSpeed="10.00" departDelay="0.89" arrival="114.00" arrivalLane="E3right3_0" arrivalPos="286.40" arrivalSpeed="13.38" duration="108.00" routeLength="1158.56" waitingTime="9.00" waitingCount="1" stopTime="0.00" timeLoss="23.06" rerouteNo="0" devices="tripinfo_OD202_NV.0" vType="NV" speedFactor="1.00" vaporized=""/>
    <tripinfo id="OD367_RV.1" depart="44.00" departLane="top2C4_0" departPos="5.10" departSpeed="10.00" departDelay="0.23" arrival="115.00" arrivalLane="B4top1_0" arrivalPos="286.40" arrivalSpeed="12.92" duration="71.00" routeLength="858.56" waitingTime="0.00" waitingCount="0" stopTime="0.00" timeLoss="6.98" rerouteNo="0" devices="tripinfo_OD367_RV.1" vType="RV" speedFactor="1.00" vaporized=""/>
    <tripinfo id="OD44_RV.0" depart="6.00" departLane="right0E0_0" departPos="5.10" departSpeed="10.00" departDelay="0.70" arrival="116.00" arrivalLane="E2right2_0" arrivalPos="286.40" arrivalSpeed="12.42" duration="110.00" routeLength="1158.56" waitingTime="12.00" waitingCount="1" stopTime="0.00" timeLoss="24.86" rerouteNo="0" devices="tripinfo_OD44_RV.0" vType="RV" speedFactor="1.00" vaporized=""/>
    <tripinfo id="OD202_NV.1" depart="13.00" departLane="right1E1_0" departPos="5.10" departSpeed="10.00" departDelay="0.75" arrival="116.00" arrivalLane="E3right3_0" arrivalPos="286.40" arrivalSpeed="12.89" duration="103.00" routeLength="1158.56" waitingTime="1.00" waitingCount="1" stopTime="0.00" timeLoss="17.65" rerouteNo="0" devices="tripinfo_OD202_NV.1" vType="NV" speedFactor="1.00" vaporized=""/>
    <tripinfo id="OD289_RV.0" depart="3.00" departLane="right2E2_0" departPos="5.10" departSpeed="10.00" departDelay="0.51" arrival="118.00" arrivalLane="E1right1_2" arrivalPos="286.40" arrivalSpeed="12.62" duration="115.00" routeLength="889.52" waitingTime="40.00" waitingCount="1" stopTime="0.00" timeLoss="48.89" rerouteNo="0" devices="tripinfo_OD289_RV.0" vType="RV" speedFactor="1.00" vaporized=""/>
    <tripinfo id="OD146_NV.0" depart="48.00" departLane="bottom1B0_0" departPos="5.10" departSpeed="10.00" departDelay="0.66" arrival="119.00" arrivalLane="C0bottom2_0" arrivalPos="286.40" arrivalSpeed="12.81" duration="71.00" routeLength="858.56" waitingTime="0.00" waitingCount="0" stopTime="0.00" timeLoss="7.67" rerouteNo="0" devices="tripinfo_OD146_NV.0" vType="NV" speedFactor="1.00" vaporized=""/>
    <tripinfo id="OD216_RV.0" depart="17.00" departLane="bottom4E0_0" departPos="5.10" departSpeed="10.00" departDelay="0.06" arrival="120.00" arrivalLane="E2right2_0" arrivalPos="286.40" arrivalSpeed="12.49" duration="103.00" routeLength="1176.73" waitingTime="1.00" waitingCount="1" stopTime="0.00" timeLoss="17.36" rerouteNo="0" devices="tripinfo_OD216_RV.0" vType="RV" speedFactor="1.00" vaporized=""/>
    <tripinfo id="OD202_RV.0" depart="23.00" departLane="right1E1_0" departPos="5.10" departSpeed="10.00" departDelay="0.67" arrival="120.00" arrivalLane="E3right3_0" arrivalPos="286.40" arrivalSpeed="13.32" duration="97.00" routeLength="1158.56" waitingTime="0.00" waitingCount="0" stopTime="0.00" timeLoss="12.28" rerouteNo="0" devices="tripinfo_OD202_RV.0" vType="RV" speedFactor="1.00" vaporized=""/>
    <tripinfo id="OD28_NV.0" depart="21.00" departLane="left3A3_0" departPos="5.10" departSpeed="10.00" departDelay="0.85" arrival="121.00" arrivalLane="A1left1_0" arrivalPos="286.40" arrivalSpeed="13.34" duration="100.00" routeLength="1158.56" waitingTime="2.00" waitingCount="1" stopTime="0.00" timeLoss="15.07" rerouteNo="0" devices="tripinfo_OD28_NV.0" vType="NV" speedFactor="1.00" vaporized=""/>
    <tripinfo id="OD122_NV.0" depart="21.00" departLane="top1B4_0" departPos="5.10" departSpeed="10.00" departDelay="0.10" arrival="122.00" arrivalLane="A3left3_0" arrivalPos="286.40" arrivalSpeed="12.55" duration="101.00" routeLength="1155.87" waitingTime="1.00" waitingCount="1" stopTime="0.00" timeLoss="14.67" rerouteNo="0" devices="tripinfo_OD122_NV.0" vType="NV" speedFactor="1.00" vaporized=""/>
    <tripinfo id="OD213_NV.0" depart="41.00" departLane="bottom4E0_0" departPos="5.10" departSpeed="10.00" departDelay="0.68" arrival="122.00" arrivalLane="E1right1_0" arrivalPos="286.40" arrivalSpeed="13.15" duration="81.00" routeLength="876.73" waitingTime="5.00" waitingCount="1" stopTime="0.00" timeLoss="16.91" rerouteNo="0" devices="tripinfo_OD213_NV.0" vType="NV" speedFactor="1.00" vaporized=""/>
    <tripinfo id="OD307_NV.0" depart="26.00" departLane="left0A0_0" departPos="5.10" departSpeed="10.00" departDelay="0.53" arrival="123.00" arrivalLane="B0bottom1_0" arrivalPos="286.40" arrivalSpeed="13.78" duration="97.00" routeLength="876.73" waitingTime="22.00" waitingCount="1" stopTime="0.00" timeLoss="32.13" rerouteNo="0" devices="tripinfo_OD307_NV.0" vType="NV" speedFactor="1.00" vaporized=""/>
    <tripinfo id="OD293_NV.0" depart="27.00" departLane="right2E2_0" departPos="5.10" departSpeed="10.00" departDelay="0.58" arrival="124.00" arrivalLane="E0right0_2" arrivalPos="286.40" arrivalSpeed="13.57" duration="97.00" routeLength="1189.52" waitingTime="1.00" waitingCount="1" stopTime="0.00" timeLoss="10.39" rerouteNo="0" devices="tripinfo_OD293_NV.0" vType="NV" speedFactor="1.00" vaporized=""/>
    <tripinfo id="OD33_NV.1" depart="43.00" departLane="left3A3_0" departPos="5.10" departSpeed="10.00" departDelay="0.91" arrival="124.00" arrivalLane="A4top0_1" arrivalPos="286.40" arrivalSpeed="13.49" duration="81.00" routeLength="892.21" waitingTime="6.00" waitingCount="1" stopTime="0.00" timeLoss="15.18" rerouteNo="0" devices="tripinfo_OD33_NV.1" vType="NV" speedFactor="1.00" vaporized=""/>
    <tripinfo id="OD241_RV.0" depart="12.00" departLane="bottom0A0_0" departPos="5.10" departSpeed="10.00" departDelay="3.36" arrival="131.00" arrivalLane="C0bottom2_0" arrivalPos="286.40" arrivalSpeed="13.45" duration="119.00" routeLength="1158.56" waitingTime="19.00" waitingCount="1" stopTime="0.00" timeLoss="32.88" rerouteNo="0" devices="tripinfo_OD241_RV.0" vType="RV" speedFactor="1.00" vaporized=""/>
    <tripinfo id="OD246_RV.0" depart="84.00" departLane="bottom0A0_0" departPos="5.10" departSpeed="10.00" departDelay="0.99" arrival="131.00" arrivalLane="A0left0_2" arrivalPos="286.40" arrivalSpeed="12.42" duration="47.00" routeLength="592.21" waitingTime="0.00" waitingCount="0" stopTime="0.00" timeLoss="2.96" rerouteNo="0" devices="tripinfo_OD246_RV.0" vType="RV" speedFactor="1.00" vaporized=""/>
    <tripinfo id="OD318_RV.0" depart="8.00" departLane="left0A0_0" departPos="5.10" departSpeed="10.00" departDelay="2.58" arrival="136.00" arrivalLane="C0bottom2_0" arrivalPos="286.40" arrivalSpeed="13.51" duration="128.00" routeLength="1176.73" waitingTime="16.00" waitingCount="1" stopTime="0.00" timeLoss="41.89" rerouteNo="0" devices="tripinfo_OD318_RV.0" vType="RV" speedFactor="1.00" vaporized=""/>
    <tripinfo id="OD301_NV.0" depart="12.00" departLane="right2E2_0" departPos="5.10" departSpeed="10.00" departDelay="0.81" arrival="136.00" arrivalLane="E4top4_1" arrivalPos="286.40" arrivalSpeed="13.82" duration="124.00" routeLength="1176.73" waitingTime="19.00" waitingCount="2" stopTime="0.00" timeLoss="38.37" rerouteNo="0" devices="tripinfo_OD301_NV.0" vType="NV" speedFactor="1.00" vaporized=""/>
    <tripinfo id="OD264_RV.0" depart="18.00" departLane="bottom2C0_0" departPos="5.10" departSpeed="10.00" departDelay="0.22" arrival="136.00" arrivalLane="A0bottom0_2" arrivalPos="286.40" arrivalSpeed="13.88" duration="118.00" routeLength="1189.52" waitingTime="12.00" waitingCount="3" stopTime="0.00" timeLoss="31.02" rerouteNo="0" devices="tripinfo_OD264_RV.0" vType="RV" speedFactor="1.00" vaporized=""/>
    <tripinfo id="OD116_NV.0" depart="57.00" departLane="top1B4_0" departPos="5.10" departSpeed="10.00" departDelay="1.67" arrival="136.00" arrivalLane="A4left4_1" arrivalPos="286.40" arrivalSpeed="12.98" duration="79.00" routeLength="876.73" waitingTime="5.00" waitingCount="1" stopTime="0.00" timeLoss="15.34" rerouteNo="0" devices="tripinfo_OD116_NV.0" vType="NV" speedFactor="1.00" vaporized=""/>
    <tripinfo id="OD300_NV.0" depart="1.00" departLane="right2E2_0" departPos="5.10" departSpeed="10.00" departDelay="0.26" arrival="138.00" arrivalLane="E0bottom4_1" arrivalPos="286.40" arrivalSpeed="12.42" duration="137.00" routeLength="1192.21" waitingTime="35.00" waitingCount="2" stopTime="0.00" timeLoss="50.01" rerouteNo="0" devices="tripinfo_OD300_NV.0" vType="NV" speedFactor="1.00" vaporized=""/>
    <tripinfo id="OD115_NV.0" depart="14.00" departLane="top1B4_0" departPos="5.10" departSpeed="10.00" departDelay="0.19" arrival="139.00" arrivalLane="D4top3_2" arrivalPos="286.40" arrivalSpeed="13.20" duration="125.00" routeLength="1189.52" waitingTime="20.00" waitingCount="3" stopTime="0.00" timeLoss="38.04" rerouteNo="0" devices="tripinfo_OD115_NV.0" vType="NV" speedFactor="1.00" vaporized=""/>
    <tripinfo id="OD221_NV.0" depart="6.00" departLane="bottom4E0_0" departPos="5.10" departSpeed="10.00" departDelay="0.32" arrival="141.00" arrivalLane="E3right3_0" arrivalPos="286.40" arrivalSpeed="13.41" duration="135.00" routeLength="1476.73" waitingTime="9.00" waitingCount="2" stopTime="0.00" timeLoss="27.32" rerouteNo="0" devices="tripinfo_OD221_NV.0" vType="NV" speedFactor="1.00" vaporized=""/>
    <tripinfo id="OD252_NV.0" depart="69.00" departLane="bottom2C0_0" departPos="5.10" departSpeed="10.00" departDelay="2.20" arrival="141.00" arrivalLane="D0bottom3_0" arrivalPos="286.40" arrivalSpeed="13.04" duration="72.00" routeLength="858.56" waitingTime="0.00" waitingCount="0" stopTime="0.00" timeLoss="8.07" rerouteNo="0" devices="tripinfo_OD252_NV.0" vType="NV" speedFactor="1.00" vaporized=""/>
    <tripinfo id="OD200_NV.0" depart="21.00" departLane="right1E1_0" departPos="5.10" departSpeed="10.00" departDelay="0.44" arrival="142.00" arrivalLane="E4right4_0" arrivalPos="286.40" arrivalSpeed="13.13" duration="121.00" routeLength="1458.56" waitingTime="0.00" waitingCount="0" stopTime="0.00" timeLoss="14.19" rerouteNo="0" devices="tripinfo_OD200_NV.0" vType="NV" speedFactor="1.00" vaporized=""/>
    <tripinfo id="OD327_NV.1" depart="24.00" departLane="bottom3D0_0" departPos="5.10" departSpeed="10.00" departDelay="0.18" arrival="144.00" arrivalLane="E1right1_1" arrivalPos="286.40" arrivalSpeed="13.56" duration="120.00" routeLength="1176.73" waitingTime="18.00" waitingCount="2" stopTime="0.00" timeLoss="34.19" rerouteNo="0" devices="tripinfo_OD327_NV.1" vType="NV" speedFactor="1.00" vaporized=""/>
    <tripinfo id="OD301_NV.1" depart="52.00" departLane="right2E2_0" departPos="5.10" departSpeed="10.00" departDelay="0.55" arrival="144.00" arrivalLane="E4top4_1" arrivalPos="286.40" arrivalSpeed="12.80" duration="92.00" routeLength="1176.73" waitingTime="0.00" waitingCount="0" stopTime="0.00" timeLoss="6.51" rerouteNo="0" devices="tripinfo_OD301_NV.1" vType="NV" speedFactor="1.00" vaporized=""/>
    <tripinfo id="OD339_NV.0" depart="73.00" departLane="bottom3D0_0" departPos="5.10" departSpeed="10.00" departDelay="0.52" arrival="144.00" arrivalLane="E0bottom4_0" arrivalPos="286.40" arrivalSpeed="13.52" duration="71.00" routeLength="858.56" waitingTime="0.00" waitingCount="0" stopTime="0.00" timeLoss="7.84" rerouteNo="0" devices="tripinfo_OD339_NV.0" vType="NV" speedFactor="1.00" vaporized=""/>
    <tripinfo id="OD197_NV.1" depart="74.00" departLane="right1E1_0" departPos="5.10" departSpeed="10.00" departDelay="0.50" arrival="145.00" arrivalLane="E2right2_0" arrivalPos="286.40" arrivalSpeed="13.15" duration="71.00" routeLength="858.56" waitingTime="0.00" waitingCount="0" stopTime="0.00" timeLoss="7.46" rerouteNo="0" devices="tripinfo_OD197_NV.1" vType="NV" speedFactor="1.00" vaporized=""/>
    <tripinfo id="OD148_NV.0" depart="7.00" departLane="bottom1B0_0" departPos="5.10" departSpeed="10.00" departDelay="0.02" arrival="146.00" arrivalLane="E0bottom4_0" arrivalPos="286.40" arrivalSpeed="12.50" duration="139.00" routeLength="1458.56" waitingTime="12.00" waitingCount="2" stopTime="0.00" timeLoss="32.51" rerouteNo="0" devices="tripinfo_OD148_NV.0" vType="NV" speedFactor="1.00" vaporized=""/>
    <tripinfo id="OD73_NV.0" depart="34.00" departLane="top3D4_0" departPos="5.10" departSpeed="10.00" departDelay="0.05" arrival="149.00" arrivalLane="E4top4_2" arrivalPos="286.40" arrivalSpeed="13.48" duration="115.00" routeLength="889.52" waitingTime="37.00" waitingCount="2" stopTime="0.00" timeLoss="49.32" rerouteNo="0" devices="tripinfo_OD73_NV.0" vType="NV" speedFactor="1.00" vaporized=""/>
    <tripinfo id="OD367_NV.1" depart="78.00" departLane="top2C4_0" departPos="5.10" departSpeed="10.00" departDelay="0.11" arrival="149.00" arrivalLane="B4top1_0" arrivalPos="286.40" arrivalSpeed="13.37" duration="71.00" routeLength="858.56" waitingTime="0.00" waitingCount="0" stopTime="0.00" timeLoss="7.51" rerouteNo="0" devices="tripinfo_OD367_NV.1" vType="NV" speedFactor="1.00" vaporized=""/>
    <tripinfo id="OD217_RV.0" depart="103.00" departLane="bottom4E0_0" departPos="5.10" departSpeed="10.00" departDelay="0.53" arrival="150.00" arrivalLane="E0right0_0" arrivalPos="286.40" arrivalSpeed="12.44" duration="47.00" routeLength="576.73" waitingTime="0.00" waitingCount="0" stopTime="0.00" timeLoss="4.68" rerouteNo="0" devices="tripinfo_OD217_RV.0" vType="RV" speedFactor="1.00" vaporized=""/>
    <tripinfo id="OD231_NV.0" depart="80.00" departLane="bottom0A0_0" departPos="5.10" departSpeed="10.00" departDelay="0.82" arrival="151.00" arrivalLane="B0bottom1_0" arrivalPos="286.40" arrivalSpeed="13.29" duration="71.00" routeLength="858.56" waitingTime="0.00" waitingCount="0" stopTime="0.00" timeLoss="7.51" rerouteNo="0" devices="tripinfo_OD231_NV.0" vType="NV" speedFactor="1.00" vaporized=""/>
    <tripinfo id="OD376_NV.0" depart="50.00" departLane="top2C4_0" departPos="5.10" departSpeed="10.00" departDelay="0.17" arrival="153.00" arrivalLane="A4top0_0" arrivalPos="286.40" arrivalSpeed="13.57" duration="103.00" routeLength="1158.56" waitingTime="2.00" waitingCount="1" stopTime="0.00" timeLoss="18.11" rerouteNo="0" devices="tripinfo_OD376_NV.0" vType="NV" speedFactor="1.00" vaporized=""/>
    <tripinfo id="OD37_NV.0" depart="7.00" departLane="left3A3_0" departPos="5.10" departSpeed="10.00" departDelay="0.45" arrival="154.00" arrivalLane="A0left0_0" arrivalPos="286.40" arrivalSpeed="13.47" duration="147.00" routeLength="1458.56" waitingTime="20.00" waitingCount="2" stopTime="0.00" timeLoss="40.16" rerouteNo="0" devices="tripinfo_OD37_NV.0" vType="NV" speedFactor="1.00" vaporized=""/>
    <tripinfo id="OD339_NV.1" depart="85.00" departLane="bottom3D0_0" departPos="5.10" departSpeed="10.00" departDelay="0.55" arrival="155.00" arrivalLane="E0bottom4_0" arrivalPos="286.40" arrivalSpeed="13.25" duration="70.00" routeLength="858.56" waitingTime="0.00" waitingCount="0" stopTime="0.00" timeLoss="6.14" rerouteNo="0" devices="tripinfo_OD339_NV.1" vType="NV" speedFactor="1.00" vaporized=""/>
    <tripinfo id="OD185_NV.0" depart="5.00" departLane="left1A1_0" departPos="5.10" departSpeed="10.00" departDelay="0.79" arrival="156.00" arrivalLane="A4top0_1" arrivalPos="286.40" arrivalSpeed="12.44" duration="151.00" routeLength="1492.21" waitingTime="24.00" waitingCount="2" stopTime="0.00" timeLoss="42.77" rerouteNo="0" devices="tripinfo_OD185_NV.0" vType="NV" speedFactor="1.00" vaporized=""/>
    <tripinfo id="OD197_NV.2" depart="86.00" departLane="right1E1_0" departPos="5.10" departSpeed="10.00" departDelay="3.85" arrival="157.00" arrivalLane="E2right2_0" arrivalPos="286.40" arrivalSpeed="13.82" duration="71.00" routeLength="858.56" waitingTime="0.00" waitingCount="0" stopTime="0.00" timeLoss="7.00" rerouteNo="0" devices="tripinfo_OD197_NV.2" vType="NV" speedFactor="1.00" vaporized=""/>
    <tripinfo id="OD44_NV.0" depart="65.00" departLane="right0E0_0" departPos="5.10" departSpeed="10.00" departDelay="0.66" arrival="159.00" arrivalLane="E2right2_0" arrivalPos="286.40" arrivalSpeed="13.79" duration="94.00" routeLength="1158.56" waitingTime="0.00" waitingCount="0" stopTime="0.00" timeLoss="8.93" rerouteNo="0" devices="tripinfo_OD44_NV.0" vType="NV" speedFactor="1.00" vaporized=""/>
    <tripinfo id="OD348_NV.0" depart="5.00" departLane="right4E4_0" departPos="5.10" departSpeed="10.00" departDelay="2.63" arrival="160.00" arrivalLane="B4top1_0" arrivalPos="286.40" arrivalSpeed="13.69" duration="155.00" routeLength="1476.73" waitingTime="22.00" waitingCount="3" stopTime="0.00" timeLoss="47.47" rerouteNo="0" devices="tripinfo_OD348_NV.0" vType="NV" speedFactor="1.00" vaporized=""/>
    <tripinfo id="OD146_NV.1" depart="91.00" departLane="bottom1B0_0" departPos="5.10" departSpeed="10.00" departDelay="0.85" arrival="161.00" arrivalLane="C0bottom2_0" arrivalPos="286.40" arrivalSpeed="12.64" duration="70.00" routeLength="858.56" waitingTime="0.00" waitingCount="0" stopTime="0.00" timeLoss="6.57" rerouteNo="0" devices="tripinfo_OD146_NV.1" vType="NV" speedFactor="1.00" vaporized=""/>
    <tripinfo id="OD372_RV.0" depart="11.00" departLane="top2C4_0" departPos="5.10" departSpeed="10.00" departDelay="1.10" arrival="162.00" arrivalLane="E4right4_1" arrivalPos="286.40" arrivalSpeed="13.21" duration="151.00" routeLength="1192.21" waitingTime="47.00" waitingCount="2" stopTime="0.00" timeLoss="63.90" rerouteNo="0" devices="tripinfo_OD372_RV.0" vType="RV" speedFactor="1.00" vaporized=""/>
    <tripinfo id="OD283_NV.0" depart="22.00" departLane="left2A2_0" departPos="5.10" departSpeed="10.00" departDelay="1.14" arrival="162.00" arrivalLane="A0bottom0_1" arrivalPos="286.40" arrivalSpeed="12.94" duration="140.00" routeLength="1176.73" waitingTime="35.00" waitingCount="2" stopTime="0.00" timeLoss="54.06" rerouteNo="0" devices="tripinfo_OD283_NV.0" vType="NV" speedFactor="1.00" vaporized=""/>