<?xml version="1.0" encoding="UTF-8"?>

<!-- generated on 2025-02-12 01:53:22 by Eclipse SUMO sumo Version 1.20.0
<configuration xmlns:xsi="http://www.w3.org/2001/XMLSchema-instance" xsi:noNamespaceSchemaLocation="http://sumo.dlr.de/xsd/sumoConfiguration.xsd">

    <input>
        <net-file value="./envs/5x5/5x5.net.xml"/>
        <route-files value="./envs/5x5/Demand_20.rou.xml"/>
    </input>

    <output>
        <tripinfo-output value="./online_train/5x5\online_train_SACTF-mask_multi_agents/tripinfo/tripinfo_ep84.xml"/>
    </output>

    <time>
        <begin value="0"/>
    </time>

    <processing>
        <time-to-teleport value="-1"/>
        <waiting-time-memory value="1800"/>
    </processing>

    <report>
        <no-step-log value="true"/>
    </report>

    <traci_server>
        <remote-port value="57677"/>
    </traci_server>

</configuration>
-->

<tripinfos xmlns:xsi="http://www.w3.org/2001/XMLSchema-instance" xsi:noNamespaceSchemaLocation="http://sumo.dlr.de/xsd/tripinfo_file.xsd">
    <tripinfo id="OD310_NV.0" depart="4.00" departLane="left4A4_0" departPos="5.10" departSpeed="10.00" departDelay="1.48" arrival="75.00" arrivalLane="A3left3_0" arrivalPos="286.40" arrivalSpeed="13.19" duration="71.00" routeLength="858.56" waitingTime="0.00" waitingCount="0" stopTime="0.00" timeLoss="7.14" rerouteNo="0" devices="tripinfo_OD310_NV.0" vType="NV" speedFactor="1.00" vaporized=""/>
    <tripinfo id="OD310_NV.1" depart="8.00" departLane="left4A4_0" departPos="5.10" departSpeed="10.00" departDelay="3.20" arrival="79.00" arrivalLane="A3left3_0" arrivalPos="286.40" arrivalSpeed="13.80" duration="71.00" routeLength="858.56" waitingTime="0.00" waitingCount="0" stopTime="0.00" timeLoss="7.34" rerouteNo="0" devices="tripinfo_OD310_NV.1" vType="NV" speedFactor="1.00" vaporized=""/>
    <tripinfo id="OD205_NV.0" depart="12.00" departLane="bottom1B0_0" departPos="5.10" departSpeed="10.00" departDelay="2.02" arrival="81.00" arrivalLane="A0left0_1" arrivalPos="286.40" arrivalSpeed="12.73" duration="69.00" routeLength="892.21" waitingTime="0.00" waitingCount="0" stopTime="0.00" timeLoss="3.87" rerouteNo="0" devices="tripinfo_OD205_NV.0" vType="NV" speedFactor="1.00" vaporized=""/>
    <tripinfo id="OD102_NV.0" depart="37.00" departLane="right4E4_0" departPos="5.10" departSpeed="10.00" departDelay="0.87" arrival="84.00" arrivalLane="E4top4_0" arrivalPos="286.40" arrivalSpeed="12.74" duration="47.00" routeLength="576.73" waitingTime="0.00" waitingCount="0" stopTime="0.00" timeLoss="4.14" rerouteNo="0" devices="tripinfo_OD102_NV.0" vType="NV" speedFactor="1.00" vaporized=""/>
    <tripinfo id="OD129_NV.0" depart="19.00" departLane="left1A1_0" departPos="5.10" departSpeed="10.00" departDelay="0.11" arrival="90.00" arrivalLane="A0left0_0" arrivalPos="286.40" arrivalSpeed="13.58" duration="71.00" routeLength="858.56" waitingTime="0.00" waitingCount="0" stopTime="0.00" timeLoss="7.84" rerouteNo="0" devices="tripinfo_OD129_NV.0" vType="NV" speedFactor="1.00" vaporized=""/>
    <tripinfo id="OD284_NV.0" depart="22.00" departLane="top4E4_0" departPos="5.10" departSpeed="10.00" departDelay="1.14" arrival="92.00" arrivalLane="D4top3_0" arrivalPos="286.40" arrivalSpeed="13.21" duration="70.00" routeLength="858.56" waitingTime="0.00" waitingCount="0" stopTime="0.00" timeLoss="7.02" rerouteNo="0" devices="tripinfo_OD284_NV.0" vType="NV" speedFactor="1.00" vaporized=""/>
    <tripinfo id="OD291_NV.0" depart="3.00" departLane="top1B4_0" departPos="5.10" departSpeed="10.00" departDelay="0.51" arrival="95.00" arrivalLane="A3left3_1" arrivalPos="286.40" arrivalSpeed="13.67" duration="92.00" routeLength="1176.73" waitingTime="0.00" waitingCount="0" stopTime="0.00" timeLoss="6.70" rerouteNo="0" devices="tripinfo_OD291_NV.0" vType="NV" speedFactor="1.00" vaporized=""/>
    <tripinfo id="OD244_NV.0" depart="9.00" departLane="top0A4_0" departPos="5.10" departSpeed="10.00" departDelay="1.64" arrival="102.00" arrivalLane="A2left2_0" arrivalPos="286.40" arrivalSpeed="13.26" duration="93.00" routeLength="1176.73" waitingTime="0.00" waitingCount="0" stopTime="0.00" timeLoss="7.38" rerouteNo="0" devices="tripinfo_OD244_NV.0" vType="NV" speedFactor="1.00" vaporized=""/>
    <tripinfo id="OD129_RV.0" depart="32.00" departLane="left1A1_0" departPos="5.10" departSpeed="10.00" departDelay="0.10" arrival="102.00" arrivalLane="A0left0_0" arrivalPos="286.40" arrivalSpeed="13.85" duration="70.00" routeLength="858.56" waitingTime="0.00" waitingCount="0" stopTime="0.00" timeLoss="6.47" rerouteNo="0" devices="tripinfo_OD129_RV.0" vType="RV" speedFactor="1.00" vaporized=""/>
    <tripinfo id="OD310_NV.2" depart="38.00" departLane="left4A4_0" departPos="5.10" departSpeed="10.00" departDelay="0.76" arrival="108.00" arrivalLane="A3left3_0" arrivalPos="286.40" arrivalSpeed="13.81" duration="70.00" routeLength="858.56" waitingTime="0.00" waitingCount="0" stopTime="0.00" timeLoss="6.52" rerouteNo="0" devices="tripinfo_OD310_NV.2" vType="NV" speedFactor="1.00" vaporized=""/>
    <tripinfo id="OD176_NV.0" depart="40.00" departLane="top3D4_0" departPos="5.10" departSpeed="10.00" departDelay="0.16" arrival="111.00" arrivalLane="C4top2_0" arrivalPos="286.40" arrivalSpeed="13.49" duration="71.00" routeLength="858.56" waitingTime="0.00" waitingCount="0" stopTime="0.00" timeLoss="6.93" rerouteNo="0" devices="tripinfo_OD176_NV.0" vType="NV" speedFactor="1.00" vaporized=""/>
    <tripinfo id="OD374_NV.0" depart="12.00" departLane="right1E1_0" departPos="5.10" departSpeed="10.00" departDelay="2.10" arrival="117.00" arrivalLane="E3right3_0" arrivalPos="286.40" arrivalSpeed="13.43" duration="105.00" routeLength="1158.56" waitingTime="5.00" waitingCount="1" stopTime="0.00" timeLoss="20.04" rerouteNo="0" devices="tripinfo_OD374_NV.0" vType="NV" speedFactor="1.00" vaporized=""/>
    <tripinfo id="OD45_NV.0" depart="6.00" departLane="right2E2_0" departPos="5.10" departSpeed="10.00" departDelay="0.70" arrival="118.00" arrivalLane="E4top4_1" arrivalPos="286.40" arrivalSpeed="12.74" duration="112.00" routeLength="1176.73" waitingTime="12.00" waitingCount="1" stopTime="0.00" timeLoss="26.56" rerouteNo="0" devices="tripinfo_OD45_NV.0" vType="NV" speedFactor="1.00" vaporized=""/>
    <tripinfo id="OD65_RV.0" depart="48.00" departLane="bottom3D0_0" departPos="5.10" departSpeed="10.00" departDelay="1.05" arrival="118.00" arrivalLane="E0bottom4_0" arrivalPos="286.40" arrivalSpeed="13.32" duration="70.00" routeLength="858.56" waitingTime="0.00" waitingCount="0" stopTime="0.00" timeLoss="6.51" rerouteNo="0" devices="tripinfo_OD65_RV.0" vType="RV" speedFactor="1.00" vaporized=""/>
    <tripinfo id="OD257_RV.0" depart="12.00" departLane="left3A3_0" departPos="5.10" departSpeed="10.00" departDelay="1.82" arrival="119.00" arrivalLane="A1left1_0" arrivalPos="286.40" arrivalSpeed="12.58" duration="107.00" routeLength="1158.56" waitingTime="8.00" waitingCount="1" stopTime="0.00" timeLoss="21.60" rerouteNo="0" devices="tripinfo_OD257_RV.0" vType="RV" speedFactor="1.00" vaporized=""/>
    <tripinfo id="OD369_NV.0" depart="5.00" departLane="right1E1_0" departPos="5.10" departSpeed="10.00" departDelay="2.04" arrival="120.00" arrivalLane="E4top4_1" arrivalPos="286.40" arrivalSpeed="13.50" duration="115.00" routeLength="1476.73" waitingTime="0.00" waitingCount="0" stopTime="0.00" timeLoss="8.04" rerouteNo="0" devices="tripinfo_OD369_NV.0" vType="NV" speedFactor="1.00" vaporized=""/>
    <tripinfo id="OD169_RV.0" depart="7.00" departLane="left2A2_0" departPos="5.10" departSpeed="10.00" departDelay="0.60" arrival="120.00" arrivalLane="A0bottom0_1" arrivalPos="286.40" arrivalSpeed="12.74" duration="113.00" routeLength="1176.73" waitingTime="15.00" waitingCount="1" stopTime="0.00" timeLoss="27.53" rerouteNo="0" devices="tripinfo_OD169_RV.0" vType="RV" speedFactor="1.00" vaporized=""/>
    <tripinfo id="OD50_NV.0" depart="49.00" departLane="right2E2_0" departPos="5.10" departSpeed="10.00" departDelay="0.93" arrival="120.00" arrivalLane="E3right3_0" arrivalPos="286.40" arrivalSpeed="12.54" duration="71.00" routeLength="858.56" waitingTime="0.00" waitingCount="0" stopTime="0.00" timeLoss="7.76" rerouteNo="0" devices="tripinfo_OD50_NV.0" vType="NV" speedFactor="1.00" vaporized=""/>
    <tripinfo id="OD169_NV.0" depart="17.00" departLane="left2A2_0" departPos="5.10" departSpeed="10.00" departDelay="0.59" arrival="122.00" arrivalLane="A0bottom0_1" arrivalPos="286.40" arrivalSpeed="13.69" duration="105.00" routeLength="1176.73" waitingTime="5.00" waitingCount="1" stopTime="0.00" timeLoss="19.30" rerouteNo="0" devices="tripinfo_OD169_NV.0" vType="NV" speedFactor="1.00" vaporized=""/>
    <tripinfo id="OD264_NV.0" depart="6.00" departLane="left3A3_0" departPos="5.10" departSpeed="10.00" departDelay="0.30" arrival="124.00" arrivalLane="A0bottom0_1" arrivalPos="286.40" arrivalSpeed="13.14" duration="118.00" routeLength="1476.73" waitingTime="0.00" waitingCount="0" stopTime="0.00" timeLoss="10.31" rerouteNo="0" devices="tripinfo_OD264_NV.0" vType="NV" speedFactor="1.00" vaporized=""/>
    <tripinfo id="OD65_NV.0" depart="54.00" departLane="bottom3D0_0" departPos="5.10" departSpeed="10.00" departDelay="0.88" arrival="125.00" arrivalLane="E0bottom4_0" arrivalPos="286.40" arrivalSpeed="12.91" duration="71.00" routeLength="858.56" waitingTime="0.00" waitingCount="0" stopTime="0.00" timeLoss="7.12" rerouteNo="0" devices="tripinfo_OD65_NV.0" vType="NV" speedFactor="1.00" vaporized=""/>
    <tripinfo id="OD284_NV.1" depart="54.00" departLane="top4E4_0" departPos="5.10" departSpeed="10.00" departDelay="0.77" arrival="125.00" arrivalLane="D4top3_0" arrivalPos="286.40" arrivalSpeed="12.90" duration="71.00" routeLength="858.56" waitingTime="0.00" waitingCount="0" stopTime="0.00" timeLoss="7.50" rerouteNo="0" devices="tripinfo_OD284_NV.1" vType="NV" speedFactor="1.00" vaporized=""/>
    <tripinfo id="OD184_NV.0" depart="25.00" departLane="top3D4_0" departPos="5.10" departSpeed="10.00" departDelay="5.03" arrival="126.00" arrivalLane="B4top1_0" arrivalPos="286.40" arrivalSpeed="13.04" duration="101.00" routeLength="1158.56" waitingTime="1.00" waitingCount="1" stopTime="0.00" timeLoss="15.50" rerouteNo="0" devices="tripinfo_OD184_NV.0" vType="NV" speedFactor="1.00" vaporized=""/>
    <tripinfo id="OD184_RV.0" depart="29.00" departLane="top3D4_0" departPos="5.10" departSpeed="10.00" departDelay="1.79" arrival="129.00" arrivalLane="B4top1_0" arrivalPos="286.40" arrivalSpeed="13.75" duration="100.00" routeLength="1158.56" waitingTime="0.00" waitingCount="0" stopTime="0.00" timeLoss="14.29" rerouteNo="0" devices="tripinfo_OD184_RV.0" vType="RV" speedFactor="1.00" vaporized=""/>
    <tripinfo id="OD257_NV.0" depart="38.00" departLane="left3A3_0" departPos="5.10" departSpeed="10.00" departDelay="0.13" arrival="131.00" arrivalLane="A1left1_0" arrivalPos="286.40" arrivalSpeed="13.29" duration="93.00" routeLength="1158.56" waitingTime="0.00" waitingCount="0" stopTime="0.00" timeLoss="8.27" rerouteNo="0" devices="tripinfo_OD257_NV.0" vType="NV" speedFactor="1.00" vaporized=""/>
    <tripinfo id="OD50_NV.1" depart="61.00" departLane="right2E2_0" departPos="5.10" departSpeed="10.00" departDelay="1.59" arrival="132.00" arrivalLane="E3right3_0" arrivalPos="286.40" arrivalSpeed="13.53" duration="71.00" routeLength="858.56" waitingTime="0.00" waitingCount="0" stopTime="0.00" timeLoss="7.24" rerouteNo="0" devices="tripinfo_OD50_NV.1" vType="NV" speedFactor="1.00" vaporized=""/>
    <tripinfo id="OD353_RV.0" depart="6.00" departLane="bottom2C0_0" departPos="5.10" departSpeed="10.00" departDelay="3.40" arrival="133.00" arrivalLane="E0right0_1" arrivalPos="286.40" arrivalSpeed="12.68" duration="127.00" routeLength="1176.73" waitingTime="22.00" waitingCount="1" stopTime="0.00" timeLoss="40.65" rerouteNo="0" devices="tripinfo_OD353_RV.0" vType="RV" speedFactor="1.00" vaporized=""/>
    <tripinfo id="OD21_RV.0" depart="16.00" departLane="top2C4_0" departPos="5.10" departSpeed="10.00" departDelay="0.63" arrival="133.00" arrivalLane="A4left4_1" arrivalPos="286.40" arrivalSpeed="12.94" duration="117.00" routeLength="1176.73" waitingTime="16.00" waitingCount="2" stopTime="0.00" timeLoss="31.53" rerouteNo="0" devices="tripinfo_OD21_RV.0" vType="RV" speedFactor="1.00" vaporized=""/>
    <tripinfo id="OD320_NV.0" depart="28.00" departLane="left4A4_0" departPos="5.10" departSpeed="10.00" departDelay="1.49" arrival="134.00" arrivalLane="A2left2_0" arrivalPos="286.40" arrivalSpeed="13.13" duration="106.00" routeLength="1158.56" waitingTime="5.00" waitingCount="1" stopTime="0.00" timeLoss="20.15" rerouteNo="0" devices="tripinfo_OD320_NV.0" vType="NV" speedFactor="1.00" vaporized=""/>
    <tripinfo id="OD113_NV.0" depart="35.00" departLane="right4E4_0" departPos="5.10" departSpeed="10.00" departDelay="0.56" arrival="134.00" arrivalLane="D4top3_0" arrivalPos="286.40" arrivalSpeed="12.71" duration="99.00" routeLength="876.73" waitingTime="23.00" waitingCount="1" stopTime="0.00" timeLoss="34.39" rerouteNo="0" devices="tripinfo_OD113_NV.0" vType="NV" speedFactor="1.00" vaporized=""/>
    <tripinfo id="OD288_RV.0" depart="59.00" departLane="top1B4_0" departPos="5.10" departSpeed="10.00" departDelay="1.65" arrival="135.00" arrivalLane="A4left4_1" arrivalPos="286.40" arrivalSpeed="13.36" duration="76.00" routeLength="876.73" waitingTime="0.00" waitingCount="0" stopTime="0.00" timeLoss="11.89" rerouteNo="0" devices="tripinfo_OD288_RV.0" vType="RV" speedFactor="1.00" vaporized=""/>
    <tripinfo id="OD76_NV.0" depart="65.00" departLane="right0E0_0" departPos="5.10" departSpeed="10.00" departDelay="0.41" arrival="135.00" arrivalLane="E1right1_0" arrivalPos="286.40" arrivalSpeed="13.37" duration="70.00" routeLength="858.56" waitingTime="0.00" waitingCount="0" stopTime="0.00" timeLoss="6.54" rerouteNo="0" devices="tripinfo_OD76_NV.0" vType="NV" speedFactor="1.00" vaporized=""/>
    <tripinfo id="OD358_NV.0" depart="29.00" departLane="bottom2C0_0" departPos="5.10" departSpeed="10.00" departDelay="0.61" arrival="137.00" arrivalLane="A0left0_1" arrivalPos="286.40" arrivalSpeed="13.51" duration="108.00" routeLength="1192.21" waitingTime="7.00" waitingCount="2" stopTime="0.00" timeLoss="21.57" rerouteNo="0" devices="tripinfo_OD358_NV.0" vType="NV" speedFactor="1.00" vaporized=""/>
    <tripinfo id="OD179_NV.0" depart="57.00" departLane="top3D4_0" departPos="5.10" departSpeed="10.00" departDelay="0.69" arrival="137.00" arrivalLane="E4top4_2" arrivalPos="286.40" arrivalSpeed="13.26" duration="80.00" routeLength="889.52" waitingTime="5.00" waitingCount="1" stopTime="0.00" timeLoss="14.93" rerouteNo="0" devices="tripinfo_OD179_NV.0" vType="NV" speedFactor="1.00" vaporized=""/>
    <tripinfo id="OD178_NV.0" depart="10.00" departLane="top3D4_0" departPos="5.10" departSpeed="10.00" departDelay="0.60" arrival="139.00" arrivalLane="E2right2_2" arrivalPos="286.40" arrivalSpeed="13.48" duration="129.00" routeLength="1471.35" waitingTime="8.00" waitingCount="1" stopTime="0.00" timeLoss="21.35" rerouteNo="0" devices="tripinfo_OD178_NV.0" vType="NV" speedFactor="1.00" vaporized=""/>
    <tripinfo id="OD50_NV.2" depart="71.00" departLane="right2E2_0" departPos="5.10" departSpeed="10.00" departDelay="0.74" arrival="141.00" arrivalLane="E3right3_0" arrivalPos="286.40" arrivalSpeed="13.16" duration="70.00" routeLength="858.56" waitingTime="0.00" waitingCount="0" stopTime="0.00" timeLoss="7.26" rerouteNo="0" devices="tripinfo_OD50_NV.2" vType="NV" speedFactor="1.00" vaporized=""/>
    <tripinfo id="OD21_RV.1" depart="36.00" departLane="top2C4_0" departPos="5.10" departSpeed="10.00" departDelay="0.64" arrival="144.00" arrivalLane="A4left4_1" arrivalPos="286.40" arrivalSpeed="12.83" duration="108.00" routeLength="1176.73" waitingTime="10.00" waitingCount="1" stopTime="0.00" timeLoss="21.85" rerouteNo="0" devices="tripinfo_OD21_RV.1" vType="RV" speedFactor="1.00" vaporized=""/>
    <tripinfo id="OD176_NV.1" depart="76.00" departLane="top3D4_0" departPos="5.10" departSpeed="10.00" departDelay="1.17" arrival="146.00" arrivalLane="C4top2_0" arrivalPos="286.40" arrivalSpeed="13.48" duration="70.00" routeLength="858.56" waitingTime="0.00" waitingCount="0" stopTime="0.00" timeLoss="6.33" rerouteNo="0" devices="tripinfo_OD176_NV.1" vType="NV" speedFactor="1.00" vaporized=""/>
    <tripinfo id="OD7_NV.0" depart="77.00" departLane="right3E3_0" departPos="5.10" departSpeed="10.00" departDelay="0.10" arrival="147.00" arrivalLane="E4top4_1" arrivalPos="286.40" arrivalSpeed="13.82" duration="70.00" routeLength="876.73" waitingTime="0.00" waitingCount="0" stopTime="0.00" timeLoss="5.55" rerouteNo="0" devices="tripinfo_OD7_NV.0" vType="NV" speedFactor="1.00" vaporized=""/>
    <tripinfo id="OD368_NV.0" depart="78.00" departLane="right1E1_0" departPos="5.10" departSpeed="10.00" departDelay="0.11" arrival="149.00" arrivalLane="E2right2_0" arrivalPos="286.40" arrivalSpeed="13.63" duration="71.00" routeLength="858.56" waitingTime="0.00" waitingCount="0" stopTime="0.00" timeLoss="7.69" rerouteNo="0" devices="tripinfo_OD368_NV.0" vType="NV" speedFactor="1.00" vaporized=""/>
    <tripinfo id="OD369_NV.1" depart="26.00" departLane="right1E1_0" departPos="5.10" departSpeed="10.00" departDelay="0.50" arrival="150.00" arrivalLane="E4top4_1" arrivalPos="286.40" arrivalSpeed="13.44" duration="124.00" routeLength="1476.73" waitingTime="1.00" waitingCount="1" stopTime="0.00" timeLoss="16.29" rerouteNo="0" devices="tripinfo_OD369_NV.1" vType="NV" speedFactor="1.00" vaporized=""/>
    <tripinfo id="OD52_NV.0" depart="59.00" departLane="right2E2_0" departPos="5.10" departSpeed="10.00" departDelay="0.01" arrival="152.00" arrivalLane="E4right4_0" arrivalPos="286.40" arrivalSpeed="13.04" duration="93.00" routeLength="1158.56" waitingTime="0.00" waitingCount="0" stopTime="0.00" timeLoss="8.61" rerouteNo="0" devices="tripinfo_OD52_NV.0" vType="NV" speedFactor="1.00" vaporized=""/>
    <tripinfo id="OD310_NV.3" depart="82.00" departLane="left4A4_0" departPos="5.10" departSpeed="10.00" departDelay="0.90" arrival="152.00" arrivalLane="A3left3_0" arrivalPos="286.40" arrivalSpeed="12.82" duration="70.00" routeLength="858.56" waitingTime="0.00" waitingCount="0" stopTime="0.00" timeLoss="7.20" rerouteNo="0" devices="tripinfo_OD310_NV.3" vType="NV" speedFactor="1.00" vaporized=""/>
    <tripinfo id="OD199_NV.0" depart="16.00" departLane="bottom1B0_0" departPos="5.10" departSpeed="10.00" departDelay="3.02" arrival="153.00" arrivalLane="E0bottom4_0" arrivalPos="286.40" arrivalSpeed="12.53" duration="137.00" routeLength="1458.56" waitingTime="4.00" waitingCount="1" stopTime="0.00" timeLoss="30.70" rerouteNo="0" devices="tripinfo_OD199_NV.0" vType="NV" speedFactor="1.00" vaporized=""/>
    <tripinfo id="OD206_RV.0" depart="10.00" departLane="bottom1B0_0" departPos="5.10" departSpeed="10.00" departDelay="0.48" arrival="156.00" arrivalLane="A2left2_2" arrivalPos="286.40" arrivalSpeed="13.59" duration="146.00" routeLength="1471.35" waitingTime="19.00" waitingCount="2" stopTime="0.00" timeLoss="37.73" rerouteNo="0" devices="tripinfo_OD206_RV.0" vType="RV" speedFactor="1.00" vaporized=""/>
    <tripinfo id="OD206_NV.0" depart="19.00" departLane="bottom1B0_0" departPos="5.10" departSpeed="10.00" departDelay="0.46" arrival="158.00" arrivalLane="A2left2_2" arrivalPos="286.40" arrivalSpeed="13.17" duration="139.00" routeLength="1471.35" waitingTime="12.00" waitingCount="2" stopTime="0.00" timeLoss="31.18" rerouteNo="0" devices="tripinfo_OD206_NV.0" vType="NV" speedFactor="1.00" vaporized=""/>
    <tripinfo id="OD169_NV.1" depart="46.00" departLane="left2A2_0" departPos="5.10" departSpeed="10.00" departDelay="0.47" arrival="159.00" arrivalLane="A0bottom0_1" arrivalPos="286.40" arrivalSpeed="13.69" duration="113.00" routeLength="1176.73" waitingTime="12.00" waitingCount="2" stopTime="0.00" timeLoss="27.65" rerouteNo="0" devices="tripinfo_OD169_NV.1" vType="NV" speedFactor="1.00" vaporized=""/>
    <tripinfo id="OD149_NV.0" depart="7.00" departLane="left0A0_0" departPos="5.10" departSpeed="10.00" departDelay="0.02" arrival="160.00" arrivalLane="A2left2_2" arrivalPos="286.40" arrivalSpeed="12.71" duration="153.00" routeLength="1189.52" waitingTime="45.00" waitingCount="3" stopTime="0.00" timeLoss="66.05" rerouteNo="0" devices="tripinfo_OD149_NV.0" vType="NV" speedFactor="1.00" vaporized=""/>
    <tripinfo id="OD14_NV.0" depart="90.00" departLane="right3E3_0" departPos="5.10" departSpeed="10.00" departDelay="0.85" arrival="160.00" arrivalLane="E4right4_0" arrivalPos="286.40" arrivalSpeed="13.66" duration="70.00" routeLength="858.56" waitingTime="0.00" waitingCount="0" stopTime="0.00" timeLoss="6.06" rerouteNo="0" devices="tripinfo_OD14_NV.0" vType="NV" speedFactor="1.00" vaporized=""/>
    <tripinfo id="OD131_NV.0" depart="80.00" departLane="left1A1_0" departPos="5.10" departSpeed="10.00" departDelay="0.33" arrival="161.00" arrivalLane="A0bottom0_1" arrivalPos="286.40" arrivalSpeed="12.99" duration="81.00" routeLength="876.73" waitingTime="6.00" waitingCount="1" stopTime="0.00" timeLoss="16.78" rerouteNo="0" devices="tripinfo_OD131_NV.0" vType="NV" speedFactor="1.00" vaporized=""/>
    <tripinfo id="OD149_NV.1" depart="40.00" departLane="left0A0_0" departPos="5.10" departSpeed="10.00" departDelay="0.33" arrival="162.00" arrivalLane="A2left2_2" arrivalPos="286.40" arrivalSpeed="12.95" duration="122.00" routeLength="1189.52" waitingTime="10.00" waitingCount="1" stopTime="0.00" timeLoss="34.74" rerouteNo="0" devices="tripinfo_OD149_NV.1" vType="NV" speedFactor="1.00" vaporized=""/>
    <tripinfo id="OD174_NV.0" depart="19.00" departLane="top3D4_0" departPos="5.10" departSpeed="10.00" departDelay="0.66" arrival="163.00" arrivalLane="A4left4_1" arrivalPos="286.40" arrivalSpeed="12.95" duration="144.00" routeLength="1476.73" waitingTime="17.00" waitingCount="2" stopTime="0.00" timeLoss="36.78" rerouteNo="0" devices="tripinfo_OD174_NV.0" vType="NV" speedFactor="1.00" vaporized=""/>
    <tripinfo id="OD135_NV.0" depart="51.00" departLane="left0A0_0" departPos="5.10" departSpeed="10.00" departDelay="0.64" arrival="163.00" arrivalLane="C0bottom2_0" arrivalPos="286.40" arrivalSpeed="12.73" duration="112.00" routeLength="1176.73" waitingTime="10.00" waitingCount="2" stopTime="0.00" timeLoss="26.13" rerouteNo="0" devices="tripinfo_OD135_NV.0" vType="NV" speedFactor="1.00" vaporized=""/>
    <tripinfo id="OD189_RV.0" depart="8.00" departLane="top3D4_0" departPos="5.10" departSpeed="10.00" departDelay="0.02" arrival="165.00" arrivalLane="D4top3_1" arrivalPos="286.40" arrivalSpeed="12.82" duration="157.00" routeLength="1737.70" waitingTime="12.00" waitingCount="1" stopTime="0.00" timeLoss="28.90" rerouteNo="0" devices="tripinfo_OD189_RV.0" vType="RV" speedFactor="1.00" vaporized=""/>
    <tripinfo id="OD174_NV.1" depart="23.00" departLane="top3D4_0" departPos="5.10" departSpeed="10.00" departDelay="3.67" arrival="165.00" arrivalLane="A4left4_1" arrivalPos="286.40" arrivalSpeed="13.20" duration="142.00" routeLength="1476.73" waitingTime="15.00" waitingCount="2" stopTime="0.00" timeLoss="34.74" rerouteNo="0" devices="tripinfo_OD174_NV.1" vType="NV" speedFactor="1.00" vaporized=""/>
    <tripinfo id="OD216_NV.0" depart="71.00" departLane="bottom4E0_0" departPos="5.10" departSpeed="10.00" departDelay="0.90" arrival="167.00" arrivalLane="E2right2_0" arrivalPos="286.40" arrivalSpeed="12.41" duration="96.00" routeLength="1176.73" waitingTime="0.00" waitingCount="0" stopTime="0.00" timeLoss="10.03" rerouteNo="0" devices="tripinfo_OD216_NV.0" vType="NV" speedFactor="1.00" vaporized=""/>
    <tripinfo id="OD218_NV.0" depart="17.00" departLane="bottom4E0_0" departPos="5.10" departSpeed="10.00" departDelay="0.06" arrival="171.00" arrivalLane="E0bottom4_0" arrivalPos="286.40" arrivalSpeed="12.75" duration="154.00" routeLength="1768.66" waitingTime="3.00" waitingCount="2" stopTime="0.00" timeLoss="23.98" rerouteNo="0" devices="tripinfo_OD218_NV.0" vType="NV" speedFactor="1.00" vaporized=""/>
    <tripinfo id="OD358_NV.1" depart="44.00" departLane="bottom2C0_0" departPos="5.10" departSpeed="10.00" departDelay="0.66" arrival="171.00" arrivalLane="A0left0_1" arrivalPos="286.40" arrivalSpeed="12.58" duration="127.00" routeLength="1192.21" waitingTime="25.00" waitingCount="1" stopTime="0.00" timeLoss="40.23" rerouteNo="0" devices="tripinfo_OD358_NV.1" vType="NV" speedFactor="1.00" vaporized=""/>
    <tripinfo id="OD216_NV.1" depart="76.00" departLane="bottom4E0_0" departPos="5.10" departSpeed="10.00" departDelay="0.26" arrival="171.00" arrivalLane="E2right2_0" arrivalPos="286.40" arrivalSpeed="13.11" duration="95.00" routeLength="1176.73" waitingTime="0.00" waitingCount="0" stopTime="0.00" timeLoss="9.25" rerouteNo="0" devices="tripinfo_OD216_NV.1" vType="NV" speedFactor="1.00" vaporized=""/>
    <tripinfo id="OD374_NV.1" depart="60.00" departLane="right1E1_0" departPos="5.10" departSpeed="10.00" departDelay="0.36" arrival="172.00" arrivalLane="E3right3_0" arrivalPos="286.40" arrivalSpeed="13.30" duration="112.00" routeLength="1158.56" waitingTime="12.00" waitingCount="1" stopTime="0.00" timeLoss="26.78" rerouteNo="0" devices="tripinfo_OD374_NV.1" vType="NV" speedFactor="1.00" vaporized=""/>
    <tripinfo id="OD353_RV.1" depart="64.00" departLane="bottom2C0_0" departPos="5.10" departSpeed="10.00" departDelay="0.22" arrival="172.00" arrivalLane="E0right0_1" arrivalPos="286.40" arrivalSpeed="12.41" duration="108.00" routeLength="1176.73" waitingTime="11.00" waitingCount="1" stopTime="0.00" timeLoss="22.06" rerouteNo="0" devices="tripinfo_OD353_RV.1" vType="RV" speedFactor="1.00" vaporized=""/>
    <tripinfo id="OD310_NV.4" depart="101.00" departLane="left4A4_0" departPos="5.10" departSpeed="10.00" departDelay="0.28" arrival="172.00" arrivalLane="A3left3_0" arrivalPos="286.40" arrivalSpeed="12.46" duration="71.00" routeLength="858.56" waitingTime="0.00" waitingCount="0" stopTime="0.00" timeLoss="7.92" rerouteNo="0" devices="tripinfo_OD310_NV.4" vType="NV" speedFactor="1.00" vaporized=""/>
    <tripinfo id="OD279_NV.0" depart="78.00" departLane="top4E4_0" departPos="5.10" departSpeed="10.00" departDelay="0.76" arrival="174.00" arrivalLane="E3right3_2" arrivalPos="286.40" arrivalSpeed="12.87" duration="96.00" routeLength="892.21" waitingTime="21.00" waitingCount="1" stopTime="0.00" timeLoss="31.39" rerouteNo="0" devices="tripinfo_OD279_NV.0" vType="NV" speedFactor="1.00" vaporized=""/>
    <tripinfo id="OD368_NV.1" depart="101.00" departLane="right1E1_0" departPos="5.10" departSpeed="10.00" departDelay="0.86" arrival="174.00" arrivalLane="E2right2_0" arrivalPos="286.40" arrivalSpeed="13.67" duration="73.00" routeLength="858.56" waitingTime="0.00" waitingCount="0" stopTime="0.00" timeLoss="9.20" rerouteNo="0" devices="tripinfo_OD368_NV.1" vType="NV" speedFactor="1.00" vaporized=""/>
    <tripinfo id="OD76_NV.1" depart="104.00" departLane="right0E0_0" departPos="5.10" departSpeed="10.00" departDelay="0.91" arrival="175.00" arrivalLane="E1right1_0" arrivalPos="286.40" arrivalSpeed="13.32" duration="71.00" routeLength="858.56" waitingTime="0.00" waitingCount="0" stopTime="0.00" timeLoss="7.08" rerouteNo="0" devices="tripinfo_OD76_NV.1" vType="NV" speedFactor="1.00" vaporized=""/>
    <tripinfo id="OD107_RV.0" depart="52.00" departLane="right4E4_0" departPos="5.10" departSpeed="10.00" departDelay="0.99" arrival="176.00" arrivalLane="E3right3_2" arrivalPos="286.40" arrivalSpeed="13.70" duration="124.00" routeLength="889.52" waitingTime="45.00" waitingCount="2" stopTime="0.00" timeLoss="58.80" rerouteNo="0" devices="tripinfo_OD107_RV.0" vType="RV" speedFactor="1.00" vaporized=""/>
    <tripinfo id="OD200_RV.0" depart="56.00" departLane="bottom1B0_0" departPos="5.10" departSpeed="10.00" departDelay="0.93" arrival="176.00" arrivalLane="E0right0_1" arrivalPos="286.40" arrivalSpeed="12.76" duration="120.00" routeLength="1476.73" waitingTime="0.00" waitingCount="0" stopTime="0.00" timeLoss="12.50" rerouteNo="0" devices="tripinfo_OD200_RV.0" vType="RV" speedFactor="1.00" vaporized=""/>
    <tripinfo id="OD369_NV.2" depart="44.00" departLane="right1E1_0" departPos="5.10" departSpeed="10.00" departDelay="0.23" arrival="177.00" arrivalLane="E4top4_1" arrivalPos="286.40" arrivalSpeed="13.45" duration="133.00" routeLength="1476.73" waitingTime="8.00" waitingCount="1" stopTime="0.00" timeLoss="25.93" rerouteNo="0" devices="tripinfo_OD369_NV.2" vType="NV" speedFactor="1.00" vaporized=""/>
    <tripinfo id="OD192_NV.0" depart="106.00" departLane="bottom1B0_0" departPos="5.10" departSpeed="10.00" departDelay="0.31" arrival="177.00" arrivalLane="C0bottom2_0" arrivalPos="286.40" arrivalSpeed="12.45" duration="71.00" routeLength="858.56" waitingTime="0.00" waitingCount="0" stopTime="0.00" timeLoss="7.27" rerouteNo="0" devices="tripinfo_OD192_NV.0" vType="NV" speedFactor="1.00" vaporized=""/>
    <tripinfo id="OD354_NV.0" depart="10.00" departLane="bottom2C0_0" departPos="5.10" departSpeed="10.00" departDelay="0.22" arrival="178.00" arrivalLane="B0bottom1_2" arrivalPos="286.40" arrivalSpeed="12.86" duration="168.00" routeLength="889.52" waitingTime="94.00" waitingCount="1" stopTime="0.00" timeLoss="102.62" rerouteNo="0" devices="tripinfo_OD354_NV.0" vType="NV" speedFactor="1.00" vaporized=""/>
    <tripinfo id="OD353_NV.0" depart="80.00" departLane="bottom2C0_0" departPos="5.10" departSpeed="10.00" departDelay="0.36" arrival="178.00" arrivalLane="E0right0_1" arrivalPos="286.40" arrivalSpeed="12.96" duration="98.00" routeLength="1176.73" waitingTime="0.00" waitingCount="0" stopTime="0.00" timeLoss="11.97" rerouteNo="0" devices="tripinfo_OD353_NV.0" vType="NV" speedFactor="1.00" vaporized=""/>