<?xml version="1.0" encoding="UTF-8"?>

<!-- generated on 2025-02-10 20:59:33 by Eclipse SUMO sumo Version 1.20.0
<configuration xmlns:xsi="http://www.w3.org/2001/XMLSchema-instance" xsi:noNamespaceSchemaLocation="http://sumo.dlr.de/xsd/sumoConfiguration.xsd">

    <input>
        <net-file value="./envs/5x5/5x5.net.xml"/>
        <route-files value="./envs/5x5/Demand_20.rou.xml"/>
    </input>

    <output>
        <tripinfo-output value="./online_train/5x5\online_train_SACTF-mask_multi_agents/tripinfo/tripinfo_ep22.xml"/>
    </output>

    <time>
        <begin value="0"/>
    </time>

    <processing>
        <time-to-teleport value="-1"/>
        <waiting-time-memory value="1800"/>
    </processing>

    <report>
        <no-step-log value="true"/>
    </report>

    <traci_server>
        <remote-port value="55349"/>
    </traci_server>

</configuration>
-->

<tripinfos xmlns:xsi="http://www.w3.org/2001/XMLSchema-instance" xsi:noNamespaceSchemaLocation="http://sumo.dlr.de/xsd/tripinfo_file.xsd">
    <tripinfo id="OD310_NV.0" depart="4.00" departLane="left4A4_0" departPos="5.10" departSpeed="10.00" departDelay="1.48" arrival="76.00" arrivalLane="A3left3_0" arrivalPos="286.40" arrivalSpeed="13.59" duration="72.00" routeLength="858.56" waitingTime="0.00" waitingCount="0" stopTime="0.00" timeLoss="7.36" rerouteNo="0" devices="tripinfo_OD310_NV.0" vType="NV" speedFactor="1.00" vaporized=""/>
    <tripinfo id="OD310_NV.1" depart="8.00" departLane="left4A4_0" departPos="5.10" departSpeed="10.00" departDelay="3.20" arrival="79.00" arrivalLane="A3left3_0" arrivalPos="286.40" arrivalSpeed="13.24" duration="71.00" routeLength="858.56" waitingTime="0.00" waitingCount="0" stopTime="0.00" timeLoss="7.34" rerouteNo="0" devices="tripinfo_OD310_NV.1" vType="NV" speedFactor="1.00" vaporized=""/>
    <tripinfo id="OD102_NV.0" depart="37.00" departLane="right4E4_0" departPos="5.10" departSpeed="10.00" departDelay="0.87" arrival="84.00" arrivalLane="E4top4_0" arrivalPos="286.40" arrivalSpeed="13.83" duration="47.00" routeLength="576.73" waitingTime="0.00" waitingCount="0" stopTime="0.00" timeLoss="4.06" rerouteNo="0" devices="tripinfo_OD102_NV.0" vType="NV" speedFactor="1.00" vaporized=""/>
    <tripinfo id="OD129_NV.0" depart="19.00" departLane="left1A1_0" departPos="5.10" departSpeed="10.00" departDelay="0.11" arrival="90.00" arrivalLane="A0left0_0" arrivalPos="286.40" arrivalSpeed="13.43" duration="71.00" routeLength="858.56" waitingTime="0.00" waitingCount="0" stopTime="0.00" timeLoss="6.83" rerouteNo="0" devices="tripinfo_OD129_NV.0" vType="NV" speedFactor="1.00" vaporized=""/>
    <tripinfo id="OD284_NV.0" depart="22.00" departLane="top4E4_0" departPos="5.10" departSpeed="10.00" departDelay="1.14" arrival="93.00" arrivalLane="D4top3_0" arrivalPos="286.40" arrivalSpeed="12.47" duration="71.00" routeLength="858.56" waitingTime="0.00" waitingCount="0" stopTime="0.00" timeLoss="7.32" rerouteNo="0" devices="tripinfo_OD284_NV.0" vType="NV" speedFactor="1.00" vaporized=""/>
    <tripinfo id="OD129_RV.0" depart="32.00" departLane="left1A1_0" departPos="5.10" departSpeed="10.00" departDelay="0.10" arrival="102.00" arrivalLane="A0left0_0" arrivalPos="286.40" arrivalSpeed="13.69" duration="70.00" routeLength="858.56" waitingTime="0.00" waitingCount="0" stopTime="0.00" timeLoss="6.45" rerouteNo="0" devices="tripinfo_OD129_RV.0" vType="RV" speedFactor="1.00" vaporized=""/>
    <tripinfo id="OD305_NV.0" depart="11.00" departLane="left4A4_0" departPos="5.10" departSpeed="10.00" departDelay="1.44" arrival="105.00" arrivalLane="A4top0_2" arrivalPos="286.40" arrivalSpeed="13.11" duration="94.00" routeLength="592.21" waitingTime="42.00" waitingCount="1" stopTime="0.00" timeLoss="50.38" rerouteNo="0" devices="tripinfo_OD305_NV.0" vType="NV" speedFactor="1.00" vaporized=""/>
    <tripinfo id="OD354_NV.0" depart="10.00" departLane="bottom2C0_0" departPos="5.10" departSpeed="10.00" departDelay="0.22" arrival="106.00" arrivalLane="B0bottom1_2" arrivalPos="286.40" arrivalSpeed="13.26" duration="96.00" routeLength="889.52" waitingTime="20.00" waitingCount="1" stopTime="0.00" timeLoss="30.69" rerouteNo="0" devices="tripinfo_OD354_NV.0" vType="NV" speedFactor="1.00" vaporized=""/>
    <tripinfo id="OD257_RV.0" depart="12.00" departLane="left3A3_0" departPos="5.10" departSpeed="10.00" departDelay="1.82" arrival="106.00" arrivalLane="A1left1_0" arrivalPos="286.40" arrivalSpeed="12.55" duration="94.00" routeLength="1158.56" waitingTime="0.00" waitingCount="0" stopTime="0.00" timeLoss="8.59" rerouteNo="0" devices="tripinfo_OD257_RV.0" vType="RV" speedFactor="1.00" vaporized=""/>
    <tripinfo id="OD310_NV.2" depart="38.00" departLane="left4A4_0" departPos="5.10" departSpeed="10.00" departDelay="0.76" arrival="109.00" arrivalLane="A3left3_0" arrivalPos="286.40" arrivalSpeed="13.04" duration="71.00" routeLength="858.56" waitingTime="0.00" waitingCount="0" stopTime="0.00" timeLoss="7.55" rerouteNo="0" devices="tripinfo_OD310_NV.2" vType="NV" speedFactor="1.00" vaporized=""/>
    <tripinfo id="OD176_NV.0" depart="40.00" departLane="top3D4_0" departPos="5.10" departSpeed="10.00" departDelay="0.16" arrival="111.00" arrivalLane="C4top2_0" arrivalPos="286.40" arrivalSpeed="12.83" duration="71.00" routeLength="858.56" waitingTime="0.00" waitingCount="0" stopTime="0.00" timeLoss="7.73" rerouteNo="0" devices="tripinfo_OD176_NV.0" vType="NV" speedFactor="1.00" vaporized=""/>
    <tripinfo id="OD244_NV.0" depart="9.00" departLane="top0A4_0" departPos="5.10" departSpeed="10.00" departDelay="1.64" arrival="113.00" arrivalLane="A2left2_0" arrivalPos="286.40" arrivalSpeed="12.56" duration="104.00" routeLength="1176.73" waitingTime="6.00" waitingCount="1" stopTime="0.00" timeLoss="17.93" rerouteNo="0" devices="tripinfo_OD244_NV.0" vType="NV" speedFactor="1.00" vaporized=""/>
    <tripinfo id="OD374_NV.0" depart="12.00" departLane="right1E1_0" departPos="5.10" departSpeed="10.00" departDelay="2.10" arrival="118.00" arrivalLane="E3right3_0" arrivalPos="286.40" arrivalSpeed="13.51" duration="106.00" routeLength="1158.56" waitingTime="9.00" waitingCount="1" stopTime="0.00" timeLoss="21.14" rerouteNo="0" devices="tripinfo_OD374_NV.0" vType="NV" speedFactor="1.00" vaporized=""/>
    <tripinfo id="OD250_NV.0" depart="30.00" departLane="left3A3_0" departPos="5.10" departSpeed="10.00" departDelay="0.83" arrival="118.00" arrivalLane="A4left4_2" arrivalPos="286.40" arrivalSpeed="12.45" duration="88.00" routeLength="889.52" waitingTime="15.00" waitingCount="1" stopTime="0.00" timeLoss="22.64" rerouteNo="0" devices="tripinfo_OD250_NV.0" vType="NV" speedFactor="1.00" vaporized=""/>
    <tripinfo id="OD158_NV.0" depart="4.00" departLane="left2A2_0" departPos="5.10" departSpeed="10.00" departDelay="0.74" arrival="119.00" arrivalLane="A3left3_2" arrivalPos="286.40" arrivalSpeed="12.54" duration="115.00" routeLength="889.52" waitingTime="39.00" waitingCount="1" stopTime="0.00" timeLoss="49.19" rerouteNo="0" devices="tripinfo_OD158_NV.0" vType="NV" speedFactor="1.00" vaporized=""/>
    <tripinfo id="OD65_RV.0" depart="49.00" departLane="bottom3D0_0" departPos="5.10" departSpeed="10.00" departDelay="2.05" arrival="120.00" arrivalLane="E0bottom4_0" arrivalPos="286.40" arrivalSpeed="13.54" duration="71.00" routeLength="858.56" waitingTime="0.00" waitingCount="0" stopTime="0.00" timeLoss="7.81" rerouteNo="0" devices="tripinfo_OD65_RV.0" vType="RV" speedFactor="1.00" vaporized=""/>
    <tripinfo id="OD59_NV.0" depart="6.00" departLane="bottom3D0_0" departPos="5.10" departSpeed="10.00" departDelay="0.38" arrival="121.00" arrivalLane="C0bottom2_2" arrivalPos="286.40" arrivalSpeed="12.58" duration="115.00" routeLength="889.52" waitingTime="37.00" waitingCount="2" stopTime="0.00" timeLoss="49.00" rerouteNo="0" devices="tripinfo_OD59_NV.0" vType="NV" speedFactor="1.00" vaporized=""/>
    <tripinfo id="OD158_NV.1" depart="13.00" departLane="left2A2_0" departPos="5.10" departSpeed="10.00" departDelay="1.11" arrival="121.00" arrivalLane="A3left3_2" arrivalPos="286.40" arrivalSpeed="13.20" duration="108.00" routeLength="889.52" waitingTime="33.00" waitingCount="1" stopTime="0.00" timeLoss="42.12" rerouteNo="0" devices="tripinfo_OD158_NV.1" vType="NV" speedFactor="1.00" vaporized=""/>
    <tripinfo id="OD50_NV.0" depart="49.00" departLane="right2E2_0" departPos="5.10" departSpeed="10.00" departDelay="0.93" arrival="122.00" arrivalLane="E3right3_0" arrivalPos="286.40" arrivalSpeed="13.54" duration="73.00" routeLength="858.56" waitingTime="0.00" waitingCount="0" stopTime="0.00" timeLoss="8.94" rerouteNo="0" devices="tripinfo_OD50_NV.0" vType="NV" speedFactor="1.00" vaporized=""/>
    <tripinfo id="OD65_NV.0" depart="54.00" departLane="bottom3D0_0" departPos="5.10" departSpeed="10.00" departDelay="0.88" arrival="125.00" arrivalLane="E0bottom4_0" arrivalPos="286.40" arrivalSpeed="13.61" duration="71.00" routeLength="858.56" waitingTime="0.00" waitingCount="0" stopTime="0.00" timeLoss="7.32" rerouteNo="0" devices="tripinfo_OD65_NV.0" vType="NV" speedFactor="1.00" vaporized=""/>
    <tripinfo id="OD284_NV.1" depart="54.00" departLane="top4E4_0" departPos="5.10" departSpeed="10.00" departDelay="0.77" arrival="125.00" arrivalLane="D4top3_0" arrivalPos="286.40" arrivalSpeed="12.89" duration="71.00" routeLength="858.56" waitingTime="0.00" waitingCount="0" stopTime="0.00" timeLoss="7.75" rerouteNo="0" devices="tripinfo_OD284_NV.1" vType="NV" speedFactor="1.00" vaporized=""/>
    <tripinfo id="OD149_NV.0" depart="7.00" departLane="left0A0_0" departPos="5.10" departSpeed="10.00" departDelay="0.02" arrival="127.00" arrivalLane="A2left2_2" arrivalPos="286.40" arrivalSpeed="12.96" duration="120.00" routeLength="1189.52" waitingTime="12.00" waitingCount="3" stopTime="0.00" timeLoss="32.90" rerouteNo="0" devices="tripinfo_OD149_NV.0" vType="NV" speedFactor="1.00" vaporized=""/>
    <tripinfo id="OD257_NV.0" depart="38.00" departLane="left3A3_0" departPos="5.10" departSpeed="10.00" departDelay="0.13" arrival="131.00" arrivalLane="A1left1_0" arrivalPos="286.40" arrivalSpeed="13.72" duration="93.00" routeLength="1158.56" waitingTime="0.00" waitingCount="0" stopTime="0.00" timeLoss="7.66" rerouteNo="0" devices="tripinfo_OD257_NV.0" vType="NV" speedFactor="1.00" vaporized=""/>
    <tripinfo id="OD288_RV.0" depart="59.00" departLane="top1B4_0" departPos="5.10" departSpeed="10.00" departDelay="1.65" arrival="131.00" arrivalLane="A4left4_1" arrivalPos="286.40" arrivalSpeed="13.40" duration="72.00" routeLength="876.73" waitingTime="0.00" waitingCount="0" stopTime="0.00" timeLoss="7.81" rerouteNo="0" devices="tripinfo_OD288_RV.0" vType="RV" speedFactor="1.00" vaporized=""/>
    <tripinfo id="OD353_RV.0" depart="6.00" departLane="bottom2C0_0" departPos="5.10" departSpeed="10.00" departDelay="3.40" arrival="132.00" arrivalLane="E0right0_1" arrivalPos="286.40" arrivalSpeed="13.27" duration="126.00" routeLength="1176.73" waitingTime="21.00" waitingCount="1" stopTime="0.00" timeLoss="40.12" rerouteNo="0" devices="tripinfo_OD353_RV.0" vType="RV" speedFactor="1.00" vaporized=""/>
    <tripinfo id="OD107_RV.0" depart="52.00" departLane="right4E4_0" departPos="5.10" departSpeed="10.00" departDelay="0.99" arrival="132.00" arrivalLane="E3right3_2" arrivalPos="286.40" arrivalSpeed="12.47" duration="80.00" routeLength="889.52" waitingTime="1.00" waitingCount="1" stopTime="0.00" timeLoss="13.89" rerouteNo="0" devices="tripinfo_OD107_RV.0" vType="RV" speedFactor="1.00" vaporized=""/>
    <tripinfo id="OD50_NV.1" depart="60.00" departLane="right2E2_0" departPos="5.10" departSpeed="10.00" departDelay="0.59" arrival="132.00" arrivalLane="E3right3_0" arrivalPos="286.40" arrivalSpeed="12.90" duration="72.00" routeLength="858.56" waitingTime="0.00" waitingCount="0" stopTime="0.00" timeLoss="8.26" rerouteNo="0" devices="tripinfo_OD50_NV.1" vType="NV" speedFactor="1.00" vaporized=""/>
    <tripinfo id="OD21_RV.0" depart="16.00" departLane="top2C4_0" departPos="5.10" departSpeed="10.00" departDelay="0.63" arrival="133.00" arrivalLane="A4left4_1" arrivalPos="286.40" arrivalSpeed="12.60" duration="117.00" routeLength="1176.73" waitingTime="16.00" waitingCount="1" stopTime="0.00" timeLoss="30.97" rerouteNo="0" devices="tripinfo_OD21_RV.0" vType="RV" speedFactor="1.00" vaporized=""/>
    <tripinfo id="OD184_NV.0" depart="25.00" departLane="top3D4_0" departPos="5.10" departSpeed="10.00" departDelay="5.03" arrival="134.00" arrivalLane="B4top1_0" arrivalPos="286.40" arrivalSpeed="13.78" duration="109.00" routeLength="1158.56" waitingTime="7.00" waitingCount="1" stopTime="0.00" timeLoss="23.38" rerouteNo="0" devices="tripinfo_OD184_NV.0" vType="NV" speedFactor="1.00" vaporized=""/>
    <tripinfo id="OD21_RV.1" depart="36.00" departLane="top2C4_0" departPos="5.10" departSpeed="10.00" departDelay="0.64" arrival="134.00" arrivalLane="A4left4_1" arrivalPos="286.40" arrivalSpeed="13.48" duration="98.00" routeLength="1176.73" waitingTime="0.00" waitingCount="0" stopTime="0.00" timeLoss="12.07" rerouteNo="0" devices="tripinfo_OD21_RV.1" vType="RV" speedFactor="1.00" vaporized=""/>
    <tripinfo id="OD184_RV.0" depart="29.00" departLane="top3D4_0" departPos="5.10" departSpeed="10.00" departDelay="1.79" arrival="136.00" arrivalLane="B4top1_0" arrivalPos="286.40" arrivalSpeed="12.90" duration="107.00" routeLength="1158.56" waitingTime="4.00" waitingCount="1" stopTime="0.00" timeLoss="21.54" rerouteNo="0" devices="tripinfo_OD184_RV.0" vType="RV" speedFactor="1.00" vaporized=""/>
    <tripinfo id="OD76_NV.0" depart="65.00" departLane="right0E0_0" departPos="5.10" departSpeed="10.00" departDelay="0.41" arrival="136.00" arrivalLane="E1right1_0" arrivalPos="286.40" arrivalSpeed="13.42" duration="71.00" routeLength="858.56" waitingTime="0.00" waitingCount="0" stopTime="0.00" timeLoss="7.05" rerouteNo="0" devices="tripinfo_OD76_NV.0" vType="NV" speedFactor="1.00" vaporized=""/>
    <tripinfo id="OD339_RV.0" depart="89.00" departLane="bottom0A0_0" departPos="5.10" departSpeed="10.00" departDelay="0.59" arrival="136.00" arrivalLane="A0left0_2" arrivalPos="286.40" arrivalSpeed="13.06" duration="47.00" routeLength="592.21" waitingTime="0.00" waitingCount="0" stopTime="0.00" timeLoss="3.00" rerouteNo="0" devices="tripinfo_OD339_RV.0" vType="RV" speedFactor="1.00" vaporized=""/>
    <tripinfo id="OD320_NV.0" depart="28.00" departLane="left4A4_0" departPos="5.10" departSpeed="10.00" departDelay="1.49" arrival="137.00" arrivalLane="A2left2_0" arrivalPos="286.40" arrivalSpeed="12.87" duration="109.00" routeLength="1158.56" waitingTime="5.00" waitingCount="1" stopTime="0.00" timeLoss="23.30" rerouteNo="0" devices="tripinfo_OD320_NV.0" vType="NV" speedFactor="1.00" vaporized=""/>
    <tripinfo id="OD244_NV.1" depart="45.00" departLane="top0A4_0" departPos="5.10" departSpeed="10.00" departDelay="0.91" arrival="139.00" arrivalLane="A2left2_0" arrivalPos="286.40" arrivalSpeed="13.47" duration="94.00" routeLength="1176.73" waitingTime="0.00" waitingCount="0" stopTime="0.00" timeLoss="8.36" rerouteNo="0" devices="tripinfo_OD244_NV.1" vType="NV" speedFactor="1.00" vaporized=""/>
    <tripinfo id="OD18_NV.0" depart="11.00" departLane="right3E3_0" departPos="5.10" departSpeed="10.00" departDelay="0.23" arrival="142.00" arrivalLane="D4top3_0" arrivalPos="286.40" arrivalSpeed="12.49" duration="131.00" routeLength="1155.87" waitingTime="32.00" waitingCount="1" stopTime="0.00" timeLoss="45.95" rerouteNo="0" devices="tripinfo_OD18_NV.0" vType="NV" speedFactor="1.00" vaporized=""/>
    <tripinfo id="OD50_NV.2" depart="71.00" departLane="right2E2_0" departPos="5.10" departSpeed="10.00" departDelay="0.74" arrival="142.00" arrivalLane="E3right3_0" arrivalPos="286.40" arrivalSpeed="12.74" duration="71.00" routeLength="858.56" waitingTime="0.00" waitingCount="0" stopTime="0.00" timeLoss="7.39" rerouteNo="0" devices="tripinfo_OD50_NV.2" vType="NV" speedFactor="1.00" vaporized=""/>
    <tripinfo id="OD68_RV.0" depart="20.00" departLane="bottom3D0_0" departPos="5.10" departSpeed="10.00" departDelay="0.38" arrival="147.00" arrivalLane="B0bottom1_2" arrivalPos="286.40" arrivalSpeed="13.37" duration="127.00" routeLength="1189.52" waitingTime="26.00" waitingCount="1" stopTime="0.00" timeLoss="39.64" rerouteNo="0" devices="tripinfo_OD68_RV.0" vType="RV" speedFactor="1.00" vaporized=""/>
    <tripinfo id="OD176_NV.1" depart="76.00" departLane="top3D4_0" departPos="5.10" departSpeed="10.00" departDelay="1.17" arrival="147.00" arrivalLane="C4top2_0" arrivalPos="286.40" arrivalSpeed="12.97" duration="71.00" routeLength="858.56" waitingTime="0.00" waitingCount="0" stopTime="0.00" timeLoss="7.11" rerouteNo="0" devices="tripinfo_OD176_NV.1" vType="NV" speedFactor="1.00" vaporized=""/>
    <tripinfo id="OD368_NV.0" depart="78.00" departLane="right1E1_0" departPos="5.10" departSpeed="10.00" departDelay="0.11" arrival="149.00" arrivalLane="E2right2_0" arrivalPos="286.40" arrivalSpeed="12.78" duration="71.00" routeLength="858.56" waitingTime="0.00" waitingCount="0" stopTime="0.00" timeLoss="7.16" rerouteNo="0" devices="tripinfo_OD368_NV.0" vType="NV" speedFactor="1.00" vaporized=""/>
    <tripinfo id="OD310_NV.3" depart="82.00" departLane="left4A4_0" departPos="5.10" departSpeed="10.00" departDelay="0.90" arrival="153.00" arrivalLane="A3left3_0" arrivalPos="286.40" arrivalSpeed="12.87" duration="71.00" routeLength="858.56" waitingTime="0.00" waitingCount="0" stopTime="0.00" timeLoss="7.86" rerouteNo="0" devices="tripinfo_OD310_NV.3" vType="NV" speedFactor="1.00" vaporized=""/>
    <tripinfo id="OD374_NV.1" depart="60.00" departLane="right1E1_0" departPos="5.10" departSpeed="10.00" departDelay="0.36" arrival="154.00" arrivalLane="E3right3_0" arrivalPos="286.40" arrivalSpeed="13.04" duration="94.00" routeLength="1158.56" waitingTime="0.00" waitingCount="0" stopTime="0.00" timeLoss="8.79" rerouteNo="0" devices="tripinfo_OD374_NV.1" vType="NV" speedFactor="1.00" vaporized=""/>
    <tripinfo id="OD130_NV.0" depart="83.00" departLane="left1A1_0" departPos="5.10" departSpeed="10.00" departDelay="0.31" arrival="155.00" arrivalLane="A2left2_2" arrivalPos="286.40" arrivalSpeed="13.81" duration="72.00" routeLength="889.52" waitingTime="0.00" waitingCount="0" stopTime="0.00" timeLoss="5.78" rerouteNo="0" devices="tripinfo_OD130_NV.0" vType="NV" speedFactor="1.00" vaporized=""/>
    <tripinfo id="OD45_NV.0" depart="6.00" departLane="right2E2_0" departPos="5.10" departSpeed="10.00" departDelay="0.70" arrival="157.00" arrivalLane="E4top4_1" arrivalPos="286.40" arrivalSpeed="12.60" duration="151.00" routeLength="1176.73" waitingTime="50.00" waitingCount="1" stopTime="0.00" timeLoss="65.76" rerouteNo="0" devices="tripinfo_OD45_NV.0" vType="NV" speedFactor="1.00" vaporized=""/>
    <tripinfo id="OD301_NV.0" depart="1.00" departLane="top1B4_0" departPos="5.10" departSpeed="10.00" departDelay="0.26" arrival="159.00" arrivalLane="A2left2_0" arrivalPos="286.40" arrivalSpeed="12.80" duration="158.00" routeLength="1455.87" waitingTime="31.00" waitingCount="2" stopTime="0.00" timeLoss="51.09" rerouteNo="0" devices="tripinfo_OD301_NV.0" vType="NV" speedFactor="1.00" vaporized=""/>
    <tripinfo id="OD369_NV.0" depart="5.00" departLane="right1E1_0" departPos="5.10" departSpeed="10.00" departDelay="2.04" arrival="159.00" arrivalLane="E4top4_1" arrivalPos="286.40" arrivalSpeed="13.74" duration="154.00" routeLength="1476.73" waitingTime="29.00" waitingCount="2" stopTime="0.00" timeLoss="46.65" rerouteNo="0" devices="tripinfo_OD369_NV.0" vType="NV" speedFactor="1.00" vaporized=""/>
    <tripinfo id="OD291_NV.0" depart="3.00" departLane="top1B4_0" departPos="5.10" departSpeed="10.00" departDelay="0.51" arrival="160.00" arrivalLane="A3left3_1" arrivalPos="286.40" arrivalSpeed="13.42" duration="157.00" routeLength="1176.73" waitingTime="54.00" waitingCount="2" stopTime="0.00" timeLoss="70.88" rerouteNo="0" devices="tripinfo_OD291_NV.0" vType="NV" speedFactor="1.00" vaporized=""/>
    <tripinfo id="OD116_NV.0" depart="14.00" departLane="left1A1_0" departPos="5.10" departSpeed="10.00" departDelay="0.19" arrival="160.00" arrivalLane="C0bottom2_0" arrivalPos="286.40" arrivalSpeed="12.64" duration="146.00" routeLength="1455.87" waitingTime="18.00" waitingCount="2" stopTime="0.00" timeLoss="38.86" rerouteNo="0" devices="tripinfo_OD116_NV.0" vType="NV" speedFactor="1.00" vaporized=""/>
    <tripinfo id="OD14_NV.0" depart="90.00" departLane="right3E3_0" departPos="5.10" departSpeed="10.00" departDelay="0.85" arrival="160.00" arrivalLane="E4right4_0" arrivalPos="286.40" arrivalSpeed="13.00" duration="70.00" routeLength="858.56" waitingTime="0.00" waitingCount="0" stopTime="0.00" timeLoss="6.72" rerouteNo="0" devices="tripinfo_OD14_NV.0" vType="NV" speedFactor="1.00" vaporized=""/>
    <tripinfo id="OD206_NV.0" depart="19.00" departLane="bottom1B0_0" departPos="5.10" departSpeed="10.00" departDelay="0.46" arrival="161.00" arrivalLane="A2left2_2" arrivalPos="286.40" arrivalSpeed="13.64" duration="142.00" routeLength="1471.35" waitingTime="15.00" waitingCount="2" stopTime="0.00" timeLoss="33.80" rerouteNo="0" devices="tripinfo_OD206_NV.0" vType="NV" speedFactor="1.00" vaporized=""/>
    <tripinfo id="OD369_NV.1" depart="26.00" departLane="right1E1_0" departPos="5.10" departSpeed="10.00" departDelay="0.50" arrival="161.00" arrivalLane="E4top4_1" arrivalPos="286.40" arrivalSpeed="12.83" duration="135.00" routeLength="1476.73" waitingTime="10.00" waitingCount="1" stopTime="0.00" timeLoss="27.64" rerouteNo="0" devices="tripinfo_OD369_NV.1" vType="NV" speedFactor="1.00" vaporized=""/>
    <tripinfo id="OD7_NV.0" depart="77.00" departLane="right3E3_0" departPos="5.10" departSpeed="10.00" departDelay="0.10" arrival="163.00" arrivalLane="E4top4_1" arrivalPos="286.40" arrivalSpeed="13.68" duration="86.00" routeLength="876.73" waitingTime="9.00" waitingCount="1" stopTime="0.00" timeLoss="21.49" rerouteNo="0" devices="tripinfo_OD7_NV.0" vType="NV" speedFactor="1.00" vaporized=""/>
    <tripinfo id="OD252_RV.0" depart="10.00" departLane="left3A3_0" departPos="5.10" departSpeed="10.00" departDelay="0.17" arrival="169.00" arrivalLane="C4top2_1" arrivalPos="286.40" arrivalSpeed="13.76" duration="159.00" routeLength="1492.21" waitingTime="35.00" waitingCount="2" stopTime="0.00" timeLoss="50.80" rerouteNo="0" devices="tripinfo_OD252_RV.0" vType="RV" speedFactor="1.00" vaporized=""/>
    <tripinfo id="OD178_NV.0" depart="10.00" departLane="top3D4_0" departPos="5.10" departSpeed="10.00" departDelay="0.60" arrival="170.00" arrivalLane="E2right2_2" arrivalPos="286.40" arrivalSpeed="13.62" duration="160.00" routeLength="1471.35" waitingTime="38.00" waitingCount="1" stopTime="0.00" timeLoss="51.66" rerouteNo="0" devices="tripinfo_OD178_NV.0" vType="NV" speedFactor="1.00" vaporized=""/>
    <tripinfo id="OD179_NV.0" depart="57.00" departLane="top3D4_0" departPos="5.10" departSpeed="10.00" departDelay="0.69" arrival="170.00" arrivalLane="E4top4_2" arrivalPos="286.40" arrivalSpeed="12.64" duration="113.00" routeLength="889.52" waitingTime="33.00" waitingCount="2" stopTime="0.00" timeLoss="47.15" rerouteNo="0" devices="tripinfo_OD179_NV.0" vType="NV" speedFactor="1.00" vaporized=""/>
    <tripinfo id="OD368_NV.1" depart="101.00" departLane="right1E1_0" departPos="5.10" departSpeed="10.00" departDelay="0.86" arrival="171.00" arrivalLane="E2right2_0" arrivalPos="286.40" arrivalSpeed="13.24" duration="70.00" routeLength="858.56" waitingTime="0.00" waitingCount="0" stopTime="0.00" timeLoss="6.94" rerouteNo="0" devices="tripinfo_OD368_NV.1" vType="NV" speedFactor="1.00" vaporized=""/>
    <tripinfo id="OD310_NV.4" depart="101.00" departLane="left4A4_0" departPos="5.10" departSpeed="10.00" departDelay="0.28" arrival="171.00" arrivalLane="A3left3_0" arrivalPos="286.40" arrivalSpeed="12.90" duration="70.00" routeLength="858.56" waitingTime="0.00" waitingCount="0" stopTime="0.00" timeLoss="7.22" rerouteNo="0" devices="tripinfo_OD310_NV.4" vType="NV" speedFactor="1.00" vaporized=""/>
    <tripinfo id="OD179_NV.1" depart="75.00" departLane="top3D4_0" departPos="5.10" departSpeed="10.00" departDelay="0.77" arrival="172.00" arrivalLane="E4top4_2" arrivalPos="286.40" arrivalSpeed="12.39" duration="97.00" routeLength="889.52" waitingTime="17.00" waitingCount="2" stopTime="0.00" timeLoss="31.44" rerouteNo="0" devices="tripinfo_OD179_NV.1" vType="NV" speedFactor="1.00" vaporized=""/>
    <tripinfo id="OD107_NV.0" depart="79.00" departLane="right4E4_0" departPos="5.10" departSpeed="10.00" departDelay="0.83" arrival="173.00" arrivalLane="E3right3_2" arrivalPos="286.40" arrivalSpeed="12.92" duration="94.00" routeLength="889.52" waitingTime="14.00" waitingCount="1" stopTime="0.00" timeLoss="28.51" rerouteNo="0" devices="tripinfo_OD107_NV.0" vType="NV" speedFactor="1.00" vaporized=""/>
    <tripinfo id="OD76_NV.1" depart="104.00" departLane="right0E0_0" departPos="5.10" departSpeed="10.00" departDelay="0.91" arrival="174.00" arrivalLane="E1right1_0" arrivalPos="286.40" arrivalSpeed="12.71" duration="70.00" routeLength="858.56" waitingTime="0.00" waitingCount="0" stopTime="0.00" timeLoss="6.73" rerouteNo="0" devices="tripinfo_OD76_NV.1" vType="NV" speedFactor="1.00" vaporized=""/>
    <tripinfo id="OD199_NV.0" depart="16.00" departLane="bottom1B0_0" departPos="5.10" departSpeed="10.00" departDelay="3.02" arrival="175.00" arrivalLane="E0bottom4_0" arrivalPos="286.40" arrivalSpeed="12.91" duration="159.00" routeLength="1458.56" waitingTime="27.00" waitingCount="2" stopTime="0.00" timeLoss="52.26" rerouteNo="0" devices="tripinfo_OD199_NV.0" vType="NV" speedFactor="1.00" vaporized=""/>
    <tripinfo id="OD107_NV.1" depart="81.00" departLane="right4E4_0" departPos="5.10" departSpeed="10.00" departDelay="0.88" arrival="175.00" arrivalLane="E3right3_2" arrivalPos="286.40" arrivalSpeed="12.68" duration="94.00" routeLength="889.52" waitingTime="13.00" waitingCount="1" stopTime="0.00" timeLoss="28.23" rerouteNo="0" devices="tripinfo_OD107_NV.1" vType="NV" speedFactor="1.00" vaporized=""/>
    <tripinfo id="OD142_NV.0" depart="31.00" departLane="left0A0_0" departPos="5.10" departSpeed="10.00" departDelay="0.33" arrival="177.00" arrivalLane="A1left1_2" arrivalPos="286.40" arrivalSpeed="13.04" duration="146.00" routeLength="889.52" waitingTime="67.00" waitingCount="2" stopTime="0.00" timeLoss="80.38" rerouteNo="0" devices="tripinfo_OD142_NV.0" vType="NV" speedFactor="1.00" vaporized=""/>
    <tripinfo id="OD192_NV.0" depart="106.00" departLane="bottom1B0_0" departPos="5.10" departSpeed="10.00" departDelay="0.31" arrival="177.00" arrivalLane="C0bottom2_0" arrivalPos="286.40" arrivalSpeed="12.95" duration="71.00" routeLength="858.56" waitingTime="0.00" waitingCount="0" stopTime="0.00" timeLoss="7.03" rerouteNo="0" devices="tripinfo_OD192_NV.0" vType="NV" speedFactor="1.00" vaporized=""/>
    <tripinfo id="OD142_NV.1" depart="45.00" departLane="left0A0_0" departPos="5.10" departSpeed="10.00" departDelay="0.59" arrival="179.00" arrivalLane="A1left1_2" arrivalPos="286.40" arrivalSpeed="12.99" duration="134.00" routeLength="889.52" waitingTime="54.00" waitingCount="2" stopTime="0.00" timeLoss="68.46" rerouteNo="0" devices="tripinfo_OD142_NV.1" vType="NV" speedFactor="1.00" vaporized=""/>
    <tripinfo id="OD374_NV.2" depart="86.00" departLane="right1E1_0" departPos="5.10" departSpeed="10.00" departDelay="0.03" arrival="179.00" arrivalLane="E3right3_0" arrivalPos="286.40" arrivalSpeed="12.97" duration="93.00" routeLength="1158.56" waitingTime="0.00" waitingCount="0" stopTime="0.00" timeLoss="8.06" rerouteNo="0" devices="tripinfo_OD374_NV.2" vType="NV" speedFactor="1.00" vaporized=""/>
    <tripinfo id="OD161_NV.0" depart="108.00" departLane="left2A2_0" departPos="5.10" departSpeed="10.00" departDelay="0.85" arrival="179.00" arrivalLane="A1left1_0" arrivalPos="286.40" arrivalSpeed="13.52" duration="71.00" routeLength="858.56" waitingTime="0.00" waitingCount="0" stopTime="0.00" timeLoss="7.47" rerouteNo="0" devices="tripinfo_OD161_NV.0" vType="NV" speedFactor="1.00" vaporized=""/>
    <tripinfo id="OD348_NV.0" depart="3.00" departLane="bottom2C0_0" departPos="5.10" departSpeed="10.00" departDelay="0.70" arrival="180.00" arrivalLane="A3left3_2" arrivalPos="286.40" arrivalSpeed="12.72" duration="177.00" routeLength="2050.49" waitingTime="2.00" waitingCount="2" stopTime="0.00" timeLoss="25.37" rerouteNo="0" devices="tripinfo_OD348_NV.0" vType="NV" speedFactor="1.00" vaporized=""/>
    <tripinfo id="OD372_NV.0" depart="57.00" departLane="right1E1_0" departPos="5.10" departSpeed="10.00" departDelay="0.58" arrival="180.00" arrivalLane="E0right0_2" arrivalPos="286.40" arrivalSpeed="13.75" duration="123.00" routeLength="889.52" waitingTime="47.00" waitingCount="1" stopTime="0.00" timeLoss="56.83" rerouteNo="0" devices="tripinfo_OD372_NV.0" vType="NV" speedFactor="1.00" vaporized=""/>
    <tripinfo id="OD279_NV.0" depart="78.00" departLane="top4E4_0" departPos="5.10" departSpeed="10.00" departDelay="0.76" arrival="182.00" arrivalLane="E3right3_2" arrivalPos="286.40" arrivalSpeed="13.12" duration="104.00" routeLength="892.21" waitingTime="29.00" waitingCount="1" stopTime="0.00" timeLoss="38.94" rerouteNo="0" devices="tripinfo_OD279_NV.0" vType="NV" speedFactor="1.00" vaporized=""/>
    <tripinfo id="OD161_NV.1" depart="110.00" departLane="left2A2_0" departPos="5.10" departSpeed="10.00" departDelay="2.36" arrival="182.00" arrivalLane="A1left1_0" arrivalPos="286.40" arrivalSpeed="12.94" duration="72.00" routeLength="858.56" waitingTime="0.00" waitingCount="0" stopTime="0.00" timeLoss="8.43" rerouteNo="0" devices="tripinfo_OD161_NV.1" vType="NV" speedFactor="1.00" vaporized=""/>