<?xml version="1.0" encoding="UTF-8"?>

<!-- generated on 2025-02-25 11:27:52 by Eclipse SUMO sumo Version 1.20.0
<configuration xmlns:xsi="http://www.w3.org/2001/XMLSchema-instance" xsi:noNamespaceSchemaLocation="http://sumo.dlr.de/xsd/sumoConfiguration.xsd">

    <input>
        <net-file value="./envs/5x5/SV_pr/5x5.net.xml"/>
        <route-files value="./envs/5x5/SV_pr/Demand_70.rou.xml"/>
    </input>

    <output>
        <tripinfo-output value="./envs/5x5/SV_pr/tripinfo_MP_70.xml"/>
    </output>

    <time>
        <begin value="0"/>
    </time>

    <processing>
        <time-to-teleport value="-1"/>
        <waiting-time-memory value="1800"/>
    </processing>

    <report>
        <no-step-log value="true"/>
    </report>

    <traci_server>
        <remote-port value="51326"/>
    </traci_server>

</configuration>
-->

<tripinfos xmlns:xsi="http://www.w3.org/2001/XMLSchema-instance" xsi:noNamespaceSchemaLocation="http://sumo.dlr.de/xsd/tripinfo_file.xsd">
    <tripinfo id="OD186_RV.0" depart="5.00" departLane="right0E0_0" departPos="5.10" departSpeed="10.00" departDelay="0.79" arrival="51.00" arrivalLane="E0bottom4_2" arrivalPos="286.40" arrivalSpeed="13.36" duration="46.00" routeLength="592.21" waitingTime="0.00" waitingCount="0" stopTime="0.00" timeLoss="2.75" rerouteNo="0" devices="tripinfo_OD186_RV.0" vType="RV" speedFactor="1.00" vaporized=""/>
    <tripinfo id="OD208_NV.0" depart="16.00" departLane="top0A4_0" departPos="5.10" departSpeed="10.00" departDelay="0.80" arrival="63.00" arrivalLane="A4left4_0" arrivalPos="286.40" arrivalSpeed="13.06" duration="47.00" routeLength="576.73" waitingTime="0.00" waitingCount="0" stopTime="0.00" timeLoss="4.50" rerouteNo="0" devices="tripinfo_OD208_NV.0" vType="NV" speedFactor="1.00" vaporized=""/>
    <tripinfo id="OD260_RV.0" depart="21.00" departLane="bottom4E0_0" departPos="5.10" departSpeed="10.00" departDelay="0.21" arrival="68.00" arrivalLane="E0right0_0" arrivalPos="286.40" arrivalSpeed="12.89" duration="47.00" routeLength="576.73" waitingTime="0.00" waitingCount="0" stopTime="0.00" timeLoss="5.00" rerouteNo="0" devices="tripinfo_OD260_RV.0" vType="RV" speedFactor="1.00" vaporized=""/>
    <tripinfo id="OD79_RV.0" depart="3.00" departLane="left4A4_0" departPos="5.10" departSpeed="10.00" departDelay="0.99" arrival="74.00" arrivalLane="A3left3_0" arrivalPos="286.40" arrivalSpeed="13.33" duration="71.00" routeLength="858.56" waitingTime="0.00" waitingCount="0" stopTime="0.00" timeLoss="7.98" rerouteNo="0" devices="tripinfo_OD79_RV.0" vType="RV" speedFactor="1.00" vaporized=""/>
    <tripinfo id="OD348_RV.0" depart="4.00" departLane="top2C4_0" departPos="5.10" departSpeed="10.00" departDelay="1.63" arrival="74.00" arrivalLane="B4top1_0" arrivalPos="286.40" arrivalSpeed="12.52" duration="70.00" routeLength="858.56" waitingTime="0.00" waitingCount="0" stopTime="0.00" timeLoss="6.76" rerouteNo="0" devices="tripinfo_OD348_RV.0" vType="RV" speedFactor="1.00" vaporized=""/>
    <tripinfo id="OD149_NV.0" depart="7.00" departLane="top4E4_0" departPos="5.10" departSpeed="10.00" departDelay="0.02" arrival="77.00" arrivalLane="D4top3_0" arrivalPos="286.40" arrivalSpeed="12.64" duration="70.00" routeLength="858.56" waitingTime="0.00" waitingCount="0" stopTime="0.00" timeLoss="6.51" rerouteNo="0" devices="tripinfo_OD149_NV.0" vType="NV" speedFactor="1.00" vaporized=""/>
    <tripinfo id="OD214_RV.0" depart="9.00" departLane="top3D4_0" departPos="5.10" departSpeed="10.00" departDelay="0.89" arrival="78.00" arrivalLane="C4top2_0" arrivalPos="286.40" arrivalSpeed="12.82" duration="69.00" routeLength="858.56" waitingTime="0.00" waitingCount="0" stopTime="0.00" timeLoss="6.10" rerouteNo="0" devices="tripinfo_OD214_RV.0" vType="RV" speedFactor="1.00" vaporized=""/>
    <tripinfo id="OD348_NV.0" depart="7.00" departLane="top2C4_0" departPos="5.10" departSpeed="10.00" departDelay="2.48" arrival="80.00" arrivalLane="B4top1_0" arrivalPos="286.40" arrivalSpeed="13.04" duration="73.00" routeLength="858.56" waitingTime="0.00" waitingCount="0" stopTime="0.00" timeLoss="9.96" rerouteNo="0" devices="tripinfo_OD348_NV.0" vType="NV" speedFactor="1.00" vaporized=""/>
    <tripinfo id="OD214_RV.1" depart="10.00" departLane="top3D4_0" departPos="5.10" departSpeed="10.00" departDelay="1.31" arrival="83.00" arrivalLane="C4top2_0" arrivalPos="286.40" arrivalSpeed="12.54" duration="73.00" routeLength="858.56" waitingTime="0.00" waitingCount="0" stopTime="0.00" timeLoss="8.54" rerouteNo="0" devices="tripinfo_OD214_RV.1" vType="RV" speedFactor="1.00" vaporized=""/>
    <tripinfo id="OD38_NV.0" depart="7.00" departLane="left0A0_0" departPos="5.10" departSpeed="10.00" departDelay="0.45" arrival="85.00" arrivalLane="B0bottom1_0" arrivalPos="286.40" arrivalSpeed="13.89" duration="78.00" routeLength="876.73" waitingTime="3.00" waitingCount="1" stopTime="0.00" timeLoss="14.28" rerouteNo="0" devices="tripinfo_OD38_NV.0" vType="NV" speedFactor="1.00" vaporized=""/>
    <tripinfo id="OD44_NV.0" depart="38.00" departLane="left0A0_0" departPos="5.10" departSpeed="10.00" departDelay="0.89" arrival="85.00" arrivalLane="A0bottom0_0" arrivalPos="286.40" arrivalSpeed="12.83" duration="47.00" routeLength="576.73" waitingTime="0.00" waitingCount="0" stopTime="0.00" timeLoss="4.31" rerouteNo="0" devices="tripinfo_OD44_NV.0" vType="NV" speedFactor="1.00" vaporized=""/>
    <tripinfo id="OD348_NV.1" depart="15.00" departLane="top2C4_0" departPos="5.10" departSpeed="10.00" departDelay="0.24" arrival="86.00" arrivalLane="B4top1_0" arrivalPos="286.40" arrivalSpeed="12.85" duration="71.00" routeLength="858.56" waitingTime="0.00" waitingCount="0" stopTime="0.00" timeLoss="7.36" rerouteNo="0" devices="tripinfo_OD348_NV.1" vType="NV" speedFactor="1.00" vaporized=""/>
    <tripinfo id="OD162_RV.0" depart="16.00" departLane="top1B4_0" departPos="5.10" departSpeed="10.00" departDelay="0.58" arrival="86.00" arrivalLane="A4top0_0" arrivalPos="286.40" arrivalSpeed="12.56" duration="70.00" routeLength="858.56" waitingTime="0.00" waitingCount="0" stopTime="0.00" timeLoss="6.63" rerouteNo="0" devices="tripinfo_OD162_RV.0" vType="RV" speedFactor="1.00" vaporized=""/>
    <tripinfo id="OD128_RV.0" depart="19.00" departLane="left1A1_0" departPos="5.10" departSpeed="10.00" departDelay="0.11" arrival="89.00" arrivalLane="A0left0_0" arrivalPos="286.40" arrivalSpeed="12.65" duration="70.00" routeLength="858.56" waitingTime="0.00" waitingCount="0" stopTime="0.00" timeLoss="6.59" rerouteNo="0" devices="tripinfo_OD128_RV.0" vType="RV" speedFactor="1.00" vaporized=""/>
    <tripinfo id="OD211_RV.0" depart="20.00" departLane="top3D4_0" departPos="5.10" departSpeed="10.00" departDelay="0.31" arrival="90.00" arrivalLane="E4right4_1" arrivalPos="286.40" arrivalSpeed="13.51" duration="70.00" routeLength="892.21" waitingTime="0.00" waitingCount="0" stopTime="0.00" timeLoss="4.29" rerouteNo="0" devices="tripinfo_OD211_RV.0" vType="RV" speedFactor="1.00" vaporized=""/>
    <tripinfo id="OD365_RV.0" depart="3.00" departLane="bottom3D0_0" departPos="5.10" departSpeed="10.00" departDelay="0.34" arrival="95.00" arrivalLane="C0bottom2_2" arrivalPos="286.40" arrivalSpeed="12.85" duration="92.00" routeLength="889.52" waitingTime="15.00" waitingCount="2" stopTime="0.00" timeLoss="26.41" rerouteNo="0" devices="tripinfo_OD365_RV.0" vType="RV" speedFactor="1.00" vaporized=""/>
    <tripinfo id="OD150_RV.0" depart="12.00" departLane="top4E4_0" departPos="5.10" departSpeed="10.00" departDelay="0.31" arrival="95.00" arrivalLane="E3right3_2" arrivalPos="286.40" arrivalSpeed="13.75" duration="83.00" routeLength="892.21" waitingTime="9.00" waitingCount="1" stopTime="0.00" timeLoss="18.03" rerouteNo="0" devices="tripinfo_OD150_RV.0" vType="RV" speedFactor="1.00" vaporized=""/>
    <tripinfo id="OD257_NV.0" depart="12.00" departLane="bottom4E0_0" departPos="5.10" departSpeed="10.00" departDelay="1.82" arrival="98.00" arrivalLane="E1right1_0" arrivalPos="286.40" arrivalSpeed="13.85" duration="86.00" routeLength="876.73" waitingTime="10.00" waitingCount="1" stopTime="0.00" timeLoss="21.72" rerouteNo="0" devices="tripinfo_OD257_NV.0" vType="NV" speedFactor="1.00" vaporized=""/>
    <tripinfo id="OD217_RV.0" depart="17.00" departLane="top3D4_0" departPos="5.10" departSpeed="10.00" departDelay="0.06" arrival="98.00" arrivalLane="E4top4_2" arrivalPos="286.40" arrivalSpeed="13.11" duration="81.00" routeLength="889.52" waitingTime="5.00" waitingCount="1" stopTime="0.00" timeLoss="15.10" rerouteNo="0" devices="tripinfo_OD217_RV.0" vType="RV" speedFactor="1.00" vaporized=""/>
    <tripinfo id="OD58_RV.0" depart="6.00" departLane="bottom1B0_0" departPos="5.10" departSpeed="10.00" departDelay="0.38" arrival="100.00" arrivalLane="D0bottom3_0" arrivalPos="286.40" arrivalSpeed="13.00" duration="94.00" routeLength="1158.56" waitingTime="0.00" waitingCount="0" stopTime="0.00" timeLoss="8.51" rerouteNo="0" devices="tripinfo_OD58_RV.0" vType="RV" speedFactor="1.00" vaporized=""/>
    <tripinfo id="OD60_RV.0" depart="29.00" departLane="bottom1B0_0" departPos="5.10" departSpeed="10.00" departDelay="0.03" arrival="101.00" arrivalLane="C0bottom2_0" arrivalPos="286.40" arrivalSpeed="13.39" duration="72.00" routeLength="858.56" waitingTime="0.00" waitingCount="0" stopTime="0.00" timeLoss="8.17" rerouteNo="0" devices="tripinfo_OD60_RV.0" vType="RV" speedFactor="1.00" vaporized=""/>
    <tripinfo id="OD359_RV.0" depart="17.00" departLane="top2C4_0" departPos="5.10" departSpeed="10.00" departDelay="1.56" arrival="102.00" arrivalLane="D4top3_2" arrivalPos="286.40" arrivalSpeed="13.56" duration="85.00" routeLength="889.52" waitingTime="10.00" waitingCount="1" stopTime="0.00" timeLoss="19.15" rerouteNo="0" devices="tripinfo_OD359_RV.0" vType="RV" speedFactor="1.00" vaporized=""/>
    <tripinfo id="OD162_RV.1" depart="34.00" departLane="top1B4_0" departPos="5.10" departSpeed="10.00" departDelay="2.09" arrival="105.00" arrivalLane="A4top0_0" arrivalPos="286.40" arrivalSpeed="13.48" duration="71.00" routeLength="858.56" waitingTime="0.00" waitingCount="0" stopTime="0.00" timeLoss="7.38" rerouteNo="0" devices="tripinfo_OD162_RV.1" vType="RV" speedFactor="1.00" vaporized=""/>
    <tripinfo id="OD320_RV.0" depart="20.00" departLane="right4E4_0" departPos="5.10" departSpeed="10.00" departDelay="0.96" arrival="109.00" arrivalLane="D4top3_0" arrivalPos="286.40" arrivalSpeed="12.63" duration="89.00" routeLength="876.73" waitingTime="13.00" waitingCount="1" stopTime="0.00" timeLoss="24.10" rerouteNo="0" devices="tripinfo_OD320_RV.0" vType="RV" speedFactor="1.00" vaporized=""/>
    <tripinfo id="OD149_NV.1" depart="40.00" departLane="top4E4_0" departPos="5.10" departSpeed="10.00" departDelay="0.33" arrival="111.00" arrivalLane="D4top3_0" arrivalPos="286.40" arrivalSpeed="13.76" duration="71.00" routeLength="858.56" waitingTime="0.00" waitingCount="0" stopTime="0.00" timeLoss="7.59" rerouteNo="0" devices="tripinfo_OD149_NV.1" vType="NV" speedFactor="1.00" vaporized=""/>
    <tripinfo id="OD214_RV.2" depart="41.00" departLane="top3D4_0" departPos="5.10" departSpeed="10.00" departDelay="0.68" arrival="111.00" arrivalLane="C4top2_0" arrivalPos="286.40" arrivalSpeed="12.97" duration="70.00" routeLength="858.56" waitingTime="0.00" waitingCount="0" stopTime="0.00" timeLoss="6.43" rerouteNo="0" devices="tripinfo_OD214_RV.2" vType="RV" speedFactor="1.00" vaporized=""/>
    <tripinfo id="OD44_RV.0" depart="65.00" departLane="left0A0_0" departPos="5.10" departSpeed="10.00" departDelay="0.66" arrival="111.00" arrivalLane="A0bottom0_0" arrivalPos="286.40" arrivalSpeed="12.78" duration="46.00" routeLength="576.73" waitingTime="0.00" waitingCount="0" stopTime="0.00" timeLoss="3.90" rerouteNo="0" devices="tripinfo_OD44_RV.0" vType="RV" speedFactor="1.00" vaporized=""/>
    <tripinfo id="OD344_RV.0" depart="19.00" departLane="top2C4_0" departPos="5.10" departSpeed="10.00" departDelay="0.58" arrival="112.00" arrivalLane="E4right4_1" arrivalPos="286.40" arrivalSpeed="12.92" duration="93.00" routeLength="1192.21" waitingTime="0.00" waitingCount="0" stopTime="0.00" timeLoss="5.60" rerouteNo="0" devices="tripinfo_OD344_RV.0" vType="RV" speedFactor="1.00" vaporized=""/>
    <tripinfo id="OD309_NV.0" depart="3.00" departLane="right4E4_0" departPos="5.10" departSpeed="10.00" departDelay="0.48" arrival="114.00" arrivalLane="C4top2_0" arrivalPos="286.40" arrivalSpeed="12.59" duration="111.00" routeLength="1176.73" waitingTime="8.00" waitingCount="2" stopTime="0.00" timeLoss="24.57" rerouteNo="0" devices="tripinfo_OD309_NV.0" vType="NV" speedFactor="1.00" vaporized=""/>
    <tripinfo id="OD138_NV.0" depart="13.00" departLane="top4E4_0" departPos="5.10" departSpeed="10.00" departDelay="1.18" arrival="116.00" arrivalLane="C4top2_0" arrivalPos="286.40" arrivalSpeed="13.78" duration="103.00" routeLength="1158.56" waitingTime="3.00" waitingCount="1" stopTime="0.00" timeLoss="18.15" rerouteNo="0" devices="tripinfo_OD138_NV.0" vType="NV" speedFactor="1.00" vaporized=""/>
    <tripinfo id="OD309_RV.0" depart="6.00" departLane="right4E4_0" departPos="5.10" departSpeed="10.00" departDelay="1.20" arrival="118.00" arrivalLane="C4top2_0" arrivalPos="286.40" arrivalSpeed="13.38" duration="112.00" routeLength="1176.73" waitingTime="4.00" waitingCount="2" stopTime="0.00" timeLoss="26.53" rerouteNo="0" devices="tripinfo_OD309_RV.0" vType="RV" speedFactor="1.00" vaporized=""/>
    <tripinfo id="OD201_RV.0" depart="21.00" departLane="top0A4_0" departPos="5.10" departSpeed="10.00" departDelay="0.44" arrival="119.00" arrivalLane="A2left2_0" arrivalPos="286.40" arrivalSpeed="13.41" duration="98.00" routeLength="1176.73" waitingTime="0.00" waitingCount="0" stopTime="0.00" timeLoss="12.19" rerouteNo="0" devices="tripinfo_OD201_RV.0" vType="RV" speedFactor="1.00" vaporized=""/>
    <tripinfo id="OD208_NV.1" depart="73.00" departLane="top0A4_0" departPos="5.10" departSpeed="10.00" departDelay="0.66" arrival="120.00" arrivalLane="A4left4_0" arrivalPos="286.40" arrivalSpeed="12.53" duration="47.00" routeLength="576.73" waitingTime="0.00" waitingCount="0" stopTime="0.00" timeLoss="4.33" rerouteNo="0" devices="tripinfo_OD208_NV.1" vType="NV" speedFactor="1.00" vaporized=""/>
    <tripinfo id="OD353_NV.0" depart="5.00" departLane="top2C4_0" departPos="5.10" departSpeed="10.00" departDelay="2.40" arrival="121.00" arrivalLane="A4top0_0" arrivalPos="286.40" arrivalSpeed="13.55" duration="116.00" routeLength="1158.56" waitingTime="16.00" waitingCount="1" stopTime="0.00" timeLoss="30.07" rerouteNo="0" devices="tripinfo_OD353_NV.0" vType="NV" speedFactor="1.00" vaporized=""/>
    <tripinfo id="OD300_RV.0" depart="1.00" departLane="right2E2_0" departPos="5.10" departSpeed="10.00" departDelay="0.26" arrival="122.00" arrivalLane="E0bottom4_1" arrivalPos="286.40" arrivalSpeed="12.43" duration="121.00" routeLength="1192.21" waitingTime="18.00" waitingCount="2" stopTime="0.00" timeLoss="33.65" rerouteNo="0" devices="tripinfo_OD300_RV.0" vType="RV" speedFactor="1.00" vaporized=""/>
    <tripinfo id="OD34_RV.0" depart="10.00" departLane="bottom2C0_0" departPos="5.10" departSpeed="10.00" departDelay="0.93" arrival="122.00" arrivalLane="E0bottom4_0" arrivalPos="286.40" arrivalSpeed="12.47" duration="112.00" routeLength="1158.56" waitingTime="11.00" waitingCount="1" stopTime="0.00" timeLoss="27.12" rerouteNo="0" devices="tripinfo_OD34_RV.0" vType="RV" speedFactor="1.00" vaporized=""/>
    <tripinfo id="OD87_NV.0" depart="25.00" departLane="left4A4_0" departPos="5.10" departSpeed="10.00" departDelay="0.35" arrival="122.00" arrivalLane="A2left2_0" arrivalPos="286.40" arrivalSpeed="12.75" duration="97.00" routeLength="1158.56" waitingTime="0.00" waitingCount="0" stopTime="0.00" timeLoss="11.94" rerouteNo="0" devices="tripinfo_OD87_NV.0" vType="NV" speedFactor="1.00" vaporized=""/>
    <tripinfo id="OD353_RV.0" depart="10.00" departLane="top2C4_0" departPos="5.10" departSpeed="10.00" departDelay="0.22" arrival="123.00" arrivalLane="A4top0_0" arrivalPos="286.40" arrivalSpeed="13.81" duration="113.00" routeLength="1158.56" waitingTime="12.00" waitingCount="1" stopTime="0.00" timeLoss="27.52" rerouteNo="0" devices="tripinfo_OD353_RV.0" vType="RV" speedFactor="1.00" vaporized=""/>
    <tripinfo id="OD18_RV.0" depart="11.00" departLane="left2A2_0" departPos="5.10" departSpeed="10.00" departDelay="0.23" arrival="126.00" arrivalLane="A4left4_2" arrivalPos="286.40" arrivalSpeed="13.57" duration="115.00" routeLength="1189.52" waitingTime="12.00" waitingCount="2" stopTime="0.00" timeLoss="28.33" rerouteNo="0" devices="tripinfo_OD18_RV.0" vType="RV" speedFactor="1.00" vaporized=""/>
    <tripinfo id="OD128_RV.1" depart="61.00" departLane="left1A1_0" departPos="5.10" departSpeed="10.00" departDelay="0.94" arrival="132.00" arrivalLane="A0left0_0" arrivalPos="286.40" arrivalSpeed="13.73" duration="71.00" routeLength="858.56" waitingTime="0.00" waitingCount="0" stopTime="0.00" timeLoss="7.41" rerouteNo="0" devices="tripinfo_OD128_RV.1" vType="RV" speedFactor="1.00" vaporized=""/>
    <tripinfo id="OD275_RV.0" depart="64.00" departLane="right1E1_0" departPos="5.10" departSpeed="10.00" departDelay="0.74" arrival="135.00" arrivalLane="E2right2_0" arrivalPos="286.40" arrivalSpeed="13.01" duration="71.00" routeLength="858.56" waitingTime="0.00" waitingCount="0" stopTime="0.00" timeLoss="7.56" rerouteNo="0" devices="tripinfo_OD275_RV.0" vType="RV" speedFactor="1.00" vaporized=""/>
    <tripinfo id="OD186_NV.0" depart="78.00" departLane="right0E0_0" departPos="5.10" departSpeed="10.00" departDelay="2.22" arrival="135.00" arrivalLane="E0bottom4_2" arrivalPos="286.40" arrivalSpeed="12.93" duration="57.00" routeLength="592.21" waitingTime="6.00" waitingCount="1" stopTime="0.00" timeLoss="13.22" rerouteNo="0" devices="tripinfo_OD186_NV.0" vType="NV" speedFactor="1.00" vaporized=""/>
    <tripinfo id="OD214_RV.3" depart="64.00" departLane="top3D4_0" departPos="5.10" departSpeed="10.00" departDelay="0.10" arrival="137.00" arrivalLane="C4top2_0" arrivalPos="286.40" arrivalSpeed="13.03" duration="73.00" routeLength="858.56" waitingTime="0.00" waitingCount="0" stopTime="0.00" timeLoss="8.44" rerouteNo="0" devices="tripinfo_OD214_RV.3" vType="RV" speedFactor="1.00" vaporized=""/>
    <tripinfo id="OD60_RV.1" depart="68.00" departLane="bottom1B0_0" departPos="5.10" departSpeed="10.00" departDelay="1.33" arrival="138.00" arrivalLane="C0bottom2_0" arrivalPos="286.40" arrivalSpeed="13.26" duration="70.00" routeLength="858.56" waitingTime="0.00" waitingCount="0" stopTime="0.00" timeLoss="6.50" rerouteNo="0" devices="tripinfo_OD60_RV.1" vType="RV" speedFactor="1.00" vaporized=""/>
    <tripinfo id="OD359_RV.1" depart="46.00" departLane="top2C4_0" departPos="5.10" departSpeed="10.00" departDelay="0.10" arrival="140.00" arrivalLane="D4top3_2" arrivalPos="286.40" arrivalSpeed="12.99" duration="94.00" routeLength="889.52" waitingTime="22.00" waitingCount="1" stopTime="0.00" timeLoss="29.06" rerouteNo="0" devices="tripinfo_OD359_RV.1" vType="RV" speedFactor="1.00" vaporized=""/>
    <tripinfo id="OD168_RV.0" depart="17.00" departLane="top1B4_0" departPos="5.10" departSpeed="10.00" departDelay="0.59" arrival="142.00" arrivalLane="D4top3_2" arrivalPos="286.40" arrivalSpeed="12.95" duration="125.00" routeLength="1189.52" waitingTime="19.00" waitingCount="3" stopTime="0.00" timeLoss="38.23" rerouteNo="0" devices="tripinfo_OD168_RV.0" vType="RV" speedFactor="1.00" vaporized=""/>
    <tripinfo id="OD245_RV.0" depart="2.00" departLane="right3E3_0" departPos="5.10" departSpeed="10.00" departDelay="0.05" arrival="143.00" arrivalLane="E3right3_1" arrivalPos="286.40" arrivalSpeed="13.75" duration="141.00" routeLength="1737.70" waitingTime="0.00" waitingCount="0" stopTime="0.00" timeLoss="13.53" rerouteNo="0" devices="tripinfo_OD245_RV.0" vType="RV" speedFactor="1.00" vaporized=""/>
    <tripinfo id="OD286_RV.0" depart="8.00" departLane="right2E2_0" departPos="5.10" departSpeed="10.00" departDelay="0.56" arrival="147.00" arrivalLane="D0bottom3_1" arrivalPos="286.40" arrivalSpeed="12.90" duration="139.00" routeLength="1492.21" waitingTime="16.00" waitingCount="1" stopTime="0.00" timeLoss="30.90" rerouteNo="0" devices="tripinfo_OD286_RV.0" vType="RV" speedFactor="1.00" vaporized=""/>
    <tripinfo id="OD80_RV.0" depart="20.00" departLane="left4A4_0" departPos="5.10" departSpeed="10.00" departDelay="0.14" arrival="147.00" arrivalLane="C4top2_2" arrivalPos="286.40" arrivalSpeed="13.15" duration="127.00" routeLength="1192.21" waitingTime="25.00" waitingCount="2" stopTime="0.00" timeLoss="40.54" rerouteNo="0" devices="tripinfo_OD80_RV.0" vType="RV" speedFactor="1.00" vaporized=""/>
    <tripinfo id="OD135_NV.0" depart="51.00" departLane="top4E4_0" departPos="5.10" departSpeed="10.00" departDelay="0.64" arrival="150.00" arrivalLane="E4right4_2" arrivalPos="286.40" arrivalSpeed="12.51" duration="99.00" routeLength="592.21" waitingTime="48.00" waitingCount="1" stopTime="0.00" timeLoss="54.97" rerouteNo="0" devices="tripinfo_OD135_NV.0" vType="NV" speedFactor="1.00" vaporized=""/>
    <tripinfo id="OD283_RV.0" depart="54.00" departLane="right1E1_0" departPos="5.10" departSpeed="10.00" departDelay="0.77" arrival="150.00" arrivalLane="E3right3_0" arrivalPos="286.40" arrivalSpeed="12.49" duration="96.00" routeLength="1158.56" waitingTime="0.00" waitingCount="0" stopTime="0.00" timeLoss="10.55" rerouteNo="0" devices="tripinfo_OD283_RV.0" vType="RV" speedFactor="1.00" vaporized=""/>
    <tripinfo id="OD135_RV.0" depart="82.00" departLane="top4E4_0" departPos="5.10" departSpeed="10.00" departDelay="0.98" arrival="152.00" arrivalLane="E4right4_2" arrivalPos="286.40" arrivalSpeed="13.01" duration="70.00" routeLength="592.21" waitingTime="19.00" waitingCount="1" stopTime="0.00" timeLoss="26.31" rerouteNo="0" devices="tripinfo_OD135_RV.0" vType="RV" speedFactor="1.00" vaporized=""/>
    <tripinfo id="OD260_RV.1" depart="107.00" departLane="bottom4E0_0" departPos="5.10" departSpeed="10.00" departDelay="0.94" arrival="154.00" arrivalLane="E0right0_0" arrivalPos="286.40" arrivalSpeed="13.54" duration="47.00" routeLength="576.73" waitingTime="0.00" waitingCount="0" stopTime="0.00" timeLoss="4.42" rerouteNo="0" devices="tripinfo_OD260_RV.1" vType="RV" speedFactor="1.00" vaporized=""/>
    <tripinfo id="OD132_RV.0" depart="5.00" departLane="left1A1_0" departPos="5.10" departSpeed="10.00" departDelay="0.01" arrival="155.00" arrivalLane="A4left4_2" arrivalPos="286.40" arrivalSpeed="12.40" duration="150.00" routeLength="1489.52" waitingTime="23.00" waitingCount="2" stopTime="0.00" timeLoss="40.69" rerouteNo="0" devices="tripinfo_OD132_RV.0" vType="RV" speedFactor="1.00" vaporized=""/>
    <tripinfo id="OD201_NV.0" depart="37.00" departLane="top0A4_0" departPos="5.10" departSpeed="10.00" departDelay="0.40" arrival="155.00" arrivalLane="A2left2_0" arrivalPos="286.40" arrivalSpeed="12.57" duration="118.00" routeLength="1176.73" waitingTime="15.00" waitingCount="2" stopTime="0.00" timeLoss="32.19" rerouteNo="0" devices="tripinfo_OD201_NV.0" vType="NV" speedFactor="1.00" vaporized=""/>
    <tripinfo id="OD328_NV.0" depart="24.00" departLane="left3A3_0" departPos="5.10" departSpeed="10.00" departDelay="0.18" arrival="156.00" arrivalLane="C4top2_2" arrivalPos="286.40" arrivalSpeed="13.43" duration="132.00" routeLength="1471.35" waitingTime="9.00" waitingCount="1" stopTime="0.00" timeLoss="23.85" rerouteNo="0" devices="tripinfo_OD328_NV.0" vType="NV" speedFactor="1.00" vaporized=""/>
    <tripinfo id="OD275_RV.1" depart="87.00" departLane="right1E1_0" departPos="5.10" departSpeed="10.00" departDelay="0.96" arrival="157.00" arrivalLane="E2right2_0" arrivalPos="286.40" arrivalSpeed="13.29" duration="70.00" routeLength="858.56" waitingTime="0.00" waitingCount="0" stopTime="0.00" timeLoss="6.40" rerouteNo="0" devices="tripinfo_OD275_RV.1" vType="RV" speedFactor="1.00" vaporized=""/>
    <tripinfo id="OD245_RV.1" depart="8.00" departLane="right3E3_0" departPos="5.10" departSpeed="10.00" departDelay="0.65" arrival="158.00" arrivalLane="E3right3_2" arrivalPos="286.40" arrivalSpeed="12.72" duration="150.00" routeLength="1737.70" waitingTime="4.00" waitingCount="1" stopTime="0.00" timeLoss="22.25" rerouteNo="0" devices="tripinfo_OD245_RV.1" vType="RV" speedFactor="1.00" vaporized=""/>
    <tripinfo id="OD79_RV.1" depart="87.00" departLane="left4A4_0" departPos="5.10" departSpeed="10.00" departDelay="0.39" arrival="158.00" arrivalLane="A3left3_0" arrivalPos="286.40" arrivalSpeed="13.14" duration="71.00" routeLength="858.56" waitingTime="0.00" waitingCount="0" stopTime="0.00" timeLoss="7.31" rerouteNo="0" devices="tripinfo_OD79_RV.1" vType="RV" speedFactor="1.00" vaporized=""/>
    <tripinfo id="OD201_RV.1" depart="44.00" departLane="top0A4_0" departPos="5.10" departSpeed="10.00" departDelay="0.45" arrival="159.00" arrivalLane="A2left2_0" arrivalPos="286.40" arrivalSpeed="12.88" duration="115.00" routeLength="1176.73" waitingTime="9.00" waitingCount="1" stopTime="0.00" timeLoss="29.32" rerouteNo="0" devices="tripinfo_OD201_RV.1" vType="RV" speedFactor="1.00" vaporized=""/>
    <tripinfo id="OD34_RV.1" depart="55.00" departLane="bottom2C0_0" departPos="5.10" departSpeed="10.00" departDelay="1.38" arrival="159.00" arrivalLane="E0bottom4_0" arrivalPos="286.40" arrivalSpeed="13.79" duration="104.00" routeLength="1158.56" waitingTime="5.00" waitingCount="1" stopTime="0.00" timeLoss="19.12" rerouteNo="0" devices="tripinfo_OD34_RV.1" vType="RV" speedFactor="1.00" vaporized=""/>
    <tripinfo id="OD106_NV.0" depart="24.00" departLane="bottom0A0_0" departPos="5.10" departSpeed="10.00" departDelay="0.00" arrival="160.00" arrivalLane="A2left2_2" arrivalPos="286.40" arrivalSpeed="12.97" duration="136.00" routeLength="1192.21" waitingTime="29.00" waitingCount="2" stopTime="0.00" timeLoss="48.74" rerouteNo="0" devices="tripinfo_OD106_NV.0" vType="NV" speedFactor="1.00" vaporized=""/>
    <tripinfo id="OD50_RV.0" depart="49.00" departLane="left0A0_0" departPos="5.10" departSpeed="10.00" departDelay="0.93" arrival="160.00" arrivalLane="A1left1_2" arrivalPos="286.40" arrivalSpeed="13.25" duration="111.00" routeLength="889.52" waitingTime="37.00" waitingCount="1" stopTime="0.00" timeLoss="45.07" rerouteNo="0" devices="tripinfo_OD50_RV.0" vType="RV" speedFactor="1.00" vaporized=""/>
    <tripinfo id="OD28_RV.0" depart="21.00" departLane="bottom2C0_0" departPos="5.10" departSpeed="10.00" departDelay="0.85" arrival="161.00" arrivalLane="E1right1_0" arrivalPos="286.40" arrivalSpeed="13.88" duration="140.00" routeLength="1455.87" waitingTime="12.00" waitingCount="2" stopTime="0.00" timeLoss="32.61" rerouteNo="0" devices="tripinfo_OD28_RV.0" vType="RV" speedFactor="1.00" vaporized=""/>
    <tripinfo id="OD375_RV.0" depart="80.00" departLane="bottom3D0_0" departPos="5.10" departSpeed="10.00" departDelay="0.93" arrival="161.00" arrivalLane="E0right0_1" arrivalPos="286.40" arrivalSpeed="12.60" duration="81.00" routeLength="876.73" waitingTime="7.00" waitingCount="1" stopTime="0.00" timeLoss="16.85" rerouteNo="0" devices="tripinfo_OD375_RV.0" vType="RV" speedFactor="1.00" vaporized=""/>
    <tripinfo id="OD49_RV.0" depart="20.00" departLane="left0A0_0" departPos="5.10" departSpeed="10.00" departDelay="0.19" arrival="162.00" arrivalLane="A2left2_2" arrivalPos="286.40" arrivalSpeed="12.97" duration="142.00" routeLength="1189.52" waitingTime="36.00" waitingCount="2" stopTime="0.00" timeLoss="54.87" rerouteNo="0" devices="tripinfo_OD49_RV.0" vType="RV" speedFactor="1.00" vaporized=""/>
    <tripinfo id="OD50_NV.0" depart="60.00" departLane="left0A0_0" departPos="5.10" departSpeed="10.00" departDelay="0.59" arrival="162.00" arrivalLane="A1left1_2" arrivalPos="286.40" arrivalSpeed="13.64" duration="102.00" routeLength="889.52" waitingTime="22.00" waitingCount="2" stopTime="0.00" timeLoss="36.07" rerouteNo="0" devices="tripinfo_OD50_NV.0" vType="NV" speedFactor="1.00" vaporized=""/>
    <tripinfo id="OD196_RV.0" depart="77.00" departLane="top0A4_0" departPos="5.10" departSpeed="10.00" departDelay="1.92" arrival="162.00" arrivalLane="B4top1_2" arrivalPos="286.40" arrivalSpeed="13.16" duration="85.00" routeLength="889.52" waitingTime="2.00" waitingCount="1" stopTime="0.00" timeLoss="19.44" rerouteNo="0" devices="tripinfo_OD196_RV.0" vType="RV" speedFactor="1.00" vaporized=""/>
    <tripinfo id="OD70_RV.0" depart="33.00" departLane="bottom1B0_0" departPos="5.10" departSpeed="10.00" departDelay="0.71" arrival="163.00" arrivalLane="E0right0_1" arrivalPos="286.40" arrivalSpeed="13.32" duration="130.00" routeLength="1476.73" waitingTime="2.00" waitingCount="1" stopTime="0.00" timeLoss="22.51" rerouteNo="0" devices="tripinfo_OD70_RV.0" vType="RV" speedFactor="1.00" vaporized=""/>
    <tripinfo id="OD371_RV.0" depart="57.00" departLane="bottom3D0_0" departPos="5.10" departSpeed="10.00" departDelay="0.58" arrival="163.00" arrivalLane="E1right1_0" arrivalPos="286.40" arrivalSpeed="13.09" duration="106.00" routeLength="1155.87" waitingTime="6.00" waitingCount="1" stopTime="0.00" timeLoss="20.49" rerouteNo="0" devices="tripinfo_OD371_RV.0" vType="RV" speedFactor="1.00" vaporized=""/>
    <tripinfo id="OD38_RV.0" depart="64.00" departLane="left0A0_0" departPos="5.10" departSpeed="10.00" departDelay="0.00" arrival="163.00" arrivalLane="B0bottom1_0" arrivalPos="286.40" arrivalSpeed="13.88" duration="99.00" routeLength="876.73" waitingTime="24.00" waitingCount="1" stopTime="0.00" timeLoss="34.94" rerouteNo="0" devices="tripinfo_OD38_RV.0" vType="RV" speedFactor="1.00" vaporized=""/>
    <tripinfo id="OD295_RV.0" depart="71.00" departLane="right2E2_0" departPos="5.10" departSpeed="10.00" departDelay="0.86" arrival="163.00" arrivalLane="E1right1_2" arrivalPos="286.40" arrivalSpeed="13.10" duration="92.00" routeLength="889.52" waitingTime="17.00" waitingCount="1" stopTime="0.00" timeLoss="25.79" rerouteNo="0" devices="tripinfo_OD295_RV.0" vType="RV" speedFactor="1.00" vaporized=""/>