<?xml version="1.0" encoding="UTF-8"?>

<!-- generated on 2025-02-24 19:57:52 by Eclipse SUMO sumo Version 1.20.0
<configuration xmlns:xsi="http://www.w3.org/2001/XMLSchema-instance" xsi:noNamespaceSchemaLocation="http://sumo.dlr.de/xsd/sumoConfiguration.xsd">

    <input>
        <net-file value="./envs/5x5/SV_pr/5x5.net.xml"/>
        <route-files value="./envs/5x5/SV_pr/Demand_10.rou.xml"/>
    </input>

    <output>
        <tripinfo-output value="./envs/5x5/SV_pr/tripinfo_MP_10.xml"/>
    </output>

    <time>
        <begin value="0"/>
    </time>

    <processing>
        <time-to-teleport value="-1"/>
        <waiting-time-memory value="1800"/>
    </processing>

    <report>
        <no-step-log value="true"/>
    </report>

    <traci_server>
        <remote-port value="53810"/>
    </traci_server>

</configuration>
-->

<tripinfos xmlns:xsi="http://www.w3.org/2001/XMLSchema-instance" xsi:noNamespaceSchemaLocation="http://sumo.dlr.de/xsd/tripinfo_file.xsd">
    <tripinfo id="OD331_NV.0" depart="3.00" departLane="right0E0_0" departPos="5.10" departSpeed="10.00" departDelay="0.34" arrival="49.00" arrivalLane="E0bottom4_2" arrivalPos="286.40" arrivalSpeed="12.93" duration="46.00" routeLength="592.21" waitingTime="0.00" waitingCount="0" stopTime="0.00" timeLoss="2.85" rerouteNo="0" devices="tripinfo_OD331_NV.0" vType="NV" speedFactor="1.00" vaporized=""/>
    <tripinfo id="OD146_NV.0" depart="16.00" departLane="bottom4E0_0" departPos="5.10" departSpeed="10.00" departDelay="0.58" arrival="63.00" arrivalLane="E0right0_0" arrivalPos="286.40" arrivalSpeed="12.43" duration="47.00" routeLength="576.73" waitingTime="0.00" waitingCount="0" stopTime="0.00" timeLoss="4.56" rerouteNo="0" devices="tripinfo_OD146_NV.0" vType="NV" speedFactor="1.00" vaporized=""/>
    <tripinfo id="OD62_NV.0" depart="20.00" departLane="top0A4_0" departPos="5.10" departSpeed="10.00" departDelay="0.38" arrival="66.00" arrivalLane="A4left4_0" arrivalPos="286.40" arrivalSpeed="12.71" duration="46.00" routeLength="576.73" waitingTime="0.00" waitingCount="0" stopTime="0.00" timeLoss="3.91" rerouteNo="0" devices="tripinfo_OD62_NV.0" vType="NV" speedFactor="1.00" vaporized=""/>
    <tripinfo id="OD262_NV.0" depart="3.00" departLane="bottom2C0_0" departPos="5.10" departSpeed="10.00" departDelay="0.51" arrival="74.00" arrivalLane="D0bottom3_0" arrivalPos="286.40" arrivalSpeed="12.48" duration="71.00" routeLength="858.56" waitingTime="0.00" waitingCount="0" stopTime="0.00" timeLoss="7.42" rerouteNo="0" devices="tripinfo_OD262_NV.0" vType="NV" speedFactor="1.00" vaporized=""/>
    <tripinfo id="OD220_NV.0" depart="9.00" departLane="top4E4_0" departPos="5.10" departSpeed="10.00" departDelay="1.64" arrival="80.00" arrivalLane="D4top3_0" arrivalPos="286.40" arrivalSpeed="13.24" duration="71.00" routeLength="858.56" waitingTime="0.00" waitingCount="0" stopTime="0.00" timeLoss="7.32" rerouteNo="0" devices="tripinfo_OD220_NV.0" vType="NV" speedFactor="1.00" vaporized=""/>
    <tripinfo id="OD146_NV.1" depart="33.00" departLane="bottom4E0_0" departPos="5.10" departSpeed="10.00" departDelay="1.09" arrival="80.00" arrivalLane="E0right0_0" arrivalPos="286.40" arrivalSpeed="12.57" duration="47.00" routeLength="576.73" waitingTime="0.00" waitingCount="0" stopTime="0.00" timeLoss="4.72" rerouteNo="0" devices="tripinfo_OD146_NV.1" vType="NV" speedFactor="1.00" vaporized=""/>
    <tripinfo id="OD361_RV.0" depart="11.00" departLane="bottom1B0_0" departPos="5.10" departSpeed="10.00" departDelay="0.74" arrival="82.00" arrivalLane="C0bottom2_0" arrivalPos="286.40" arrivalSpeed="13.15" duration="71.00" routeLength="858.56" waitingTime="0.00" waitingCount="0" stopTime="0.00" timeLoss="7.41" rerouteNo="0" devices="tripinfo_OD361_RV.0" vType="RV" speedFactor="1.00" vaporized=""/>
    <tripinfo id="OD272_NV.0" depart="1.00" departLane="left3A3_0" departPos="5.10" departSpeed="10.00" departDelay="0.26" arrival="84.00" arrivalLane="A4left4_2" arrivalPos="286.40" arrivalSpeed="13.13" duration="83.00" routeLength="889.52" waitingTime="7.00" waitingCount="1" stopTime="0.00" timeLoss="16.97" rerouteNo="0" devices="tripinfo_OD272_NV.0" vType="NV" speedFactor="1.00" vaporized=""/>
    <tripinfo id="OD325_NV.0" depart="16.00" departLane="right0E0_0" departPos="5.10" departSpeed="10.00" departDelay="0.56" arrival="87.00" arrivalLane="E1right1_0" arrivalPos="286.40" arrivalSpeed="13.31" duration="71.00" routeLength="858.56" waitingTime="0.00" waitingCount="0" stopTime="0.00" timeLoss="7.78" rerouteNo="0" devices="tripinfo_OD325_NV.0" vType="NV" speedFactor="1.00" vaporized=""/>
    <tripinfo id="OD30_NV.0" depart="10.00" departLane="top2C4_0" departPos="5.10" departSpeed="10.00" departDelay="0.93" arrival="89.00" arrivalLane="D4top3_2" arrivalPos="286.40" arrivalSpeed="13.51" duration="79.00" routeLength="889.52" waitingTime="4.00" waitingCount="1" stopTime="0.00" timeLoss="13.23" rerouteNo="0" devices="tripinfo_OD30_NV.0" vType="NV" speedFactor="1.00" vaporized=""/>
    <tripinfo id="OD160_RV.0" depart="20.00" departLane="right1E1_0" departPos="5.10" departSpeed="10.00" departDelay="1.39" arrival="90.00" arrivalLane="E2right2_0" arrivalPos="286.40" arrivalSpeed="13.12" duration="70.00" routeLength="858.56" waitingTime="0.00" waitingCount="0" stopTime="0.00" timeLoss="7.22" rerouteNo="0" devices="tripinfo_OD160_RV.0" vType="RV" speedFactor="1.00" vaporized=""/>
    <tripinfo id="OD235_NV.0" depart="21.00" departLane="left1A1_0" departPos="5.10" departSpeed="10.00" departDelay="0.21" arrival="91.00" arrivalLane="A0left0_0" arrivalPos="286.40" arrivalSpeed="13.22" duration="70.00" routeLength="858.56" waitingTime="0.00" waitingCount="0" stopTime="0.00" timeLoss="6.47" rerouteNo="0" devices="tripinfo_OD235_NV.0" vType="NV" speedFactor="1.00" vaporized=""/>
    <tripinfo id="OD197_NV.0" depart="42.00" departLane="bottom0A0_0" departPos="5.10" departSpeed="10.00" departDelay="1.22" arrival="100.00" arrivalLane="A0left0_2" arrivalPos="286.40" arrivalSpeed="13.46" duration="58.00" routeLength="592.21" waitingTime="7.00" waitingCount="1" stopTime="0.00" timeLoss="14.85" rerouteNo="0" devices="tripinfo_OD197_NV.0" vType="NV" speedFactor="1.00" vaporized=""/>
    <tripinfo id="OD94_RV.0" depart="30.00" departLane="top3D4_0" departPos="5.10" departSpeed="10.00" departDelay="0.19" arrival="101.00" arrivalLane="C4top2_0" arrivalPos="286.40" arrivalSpeed="13.21" duration="71.00" routeLength="858.56" waitingTime="0.00" waitingCount="0" stopTime="0.00" timeLoss="8.09" rerouteNo="0" devices="tripinfo_OD94_RV.0" vType="RV" speedFactor="1.00" vaporized=""/>
    <tripinfo id="OD331_NV.1" depart="41.00" departLane="right0E0_0" departPos="5.10" departSpeed="10.00" departDelay="0.75" arrival="101.00" arrivalLane="E0bottom4_2" arrivalPos="286.40" arrivalSpeed="13.76" duration="60.00" routeLength="592.21" waitingTime="10.00" waitingCount="1" stopTime="0.00" timeLoss="16.20" rerouteNo="0" devices="tripinfo_OD331_NV.1" vType="NV" speedFactor="1.00" vaporized=""/>
    <tripinfo id="OD167_NV.0" depart="2.00" departLane="right1E1_0" departPos="5.10" departSpeed="10.00" departDelay="0.70" arrival="104.00" arrivalLane="D0bottom3_1" arrivalPos="286.40" arrivalSpeed="13.33" duration="102.00" routeLength="1192.21" waitingTime="4.00" waitingCount="1" stopTime="0.00" timeLoss="15.24" rerouteNo="0" devices="tripinfo_OD167_NV.0" vType="NV" speedFactor="1.00" vaporized=""/>
    <tripinfo id="OD348_NV.0" depart="34.00" departLane="top1B4_0" departPos="5.10" departSpeed="10.00" departDelay="0.57" arrival="104.00" arrivalLane="A4left4_1" arrivalPos="286.40" arrivalSpeed="13.24" duration="70.00" routeLength="876.73" waitingTime="0.00" waitingCount="0" stopTime="0.00" timeLoss="5.67" rerouteNo="0" devices="tripinfo_OD348_NV.0" vType="NV" speedFactor="1.00" vaporized=""/>
    <tripinfo id="OD361_NV.0" depart="39.00" departLane="bottom1B0_0" departPos="5.10" departSpeed="10.00" departDelay="0.02" arrival="110.00" arrivalLane="C0bottom2_0" arrivalPos="286.40" arrivalSpeed="13.21" duration="71.00" routeLength="858.56" waitingTime="0.00" waitingCount="0" stopTime="0.00" timeLoss="7.64" rerouteNo="0" devices="tripinfo_OD361_NV.0" vType="NV" speedFactor="1.00" vaporized=""/>
    <tripinfo id="OD317_NV.0" depart="27.00" departLane="left0A0_0" departPos="5.10" departSpeed="10.00" departDelay="0.20" arrival="111.00" arrivalLane="B0bottom1_0" arrivalPos="286.40" arrivalSpeed="13.64" duration="84.00" routeLength="876.73" waitingTime="10.00" waitingCount="1" stopTime="0.00" timeLoss="19.43" rerouteNo="0" devices="tripinfo_OD317_NV.0" vType="NV" speedFactor="1.00" vaporized=""/>
    <tripinfo id="OD44_NV.0" depart="20.00" departLane="left2A2_0" departPos="5.10" departSpeed="10.00" departDelay="0.19" arrival="113.00" arrivalLane="A0left0_0" arrivalPos="286.40" arrivalSpeed="13.86" duration="93.00" routeLength="1158.56" waitingTime="0.00" waitingCount="0" stopTime="0.00" timeLoss="8.27" rerouteNo="0" devices="tripinfo_OD44_NV.0" vType="NV" speedFactor="1.00" vaporized=""/>
    <tripinfo id="OD185_NV.0" depart="12.00" departLane="right3E3_0" departPos="5.10" departSpeed="10.00" departDelay="2.02" arrival="116.00" arrivalLane="E4top4_1" arrivalPos="286.40" arrivalSpeed="13.48" duration="104.00" routeLength="876.73" waitingTime="29.00" waitingCount="1" stopTime="0.00" timeLoss="39.63" rerouteNo="0" devices="tripinfo_OD185_NV.0" vType="NV" speedFactor="1.00" vaporized=""/>
    <tripinfo id="OD185_NV.1" depart="19.00" departLane="right3E3_0" departPos="5.10" departSpeed="10.00" departDelay="0.46" arrival="118.00" arrivalLane="E4top4_1" arrivalPos="286.40" arrivalSpeed="12.57" duration="99.00" routeLength="876.73" waitingTime="25.00" waitingCount="1" stopTime="0.00" timeLoss="34.97" rerouteNo="0" devices="tripinfo_OD185_NV.1" vType="NV" speedFactor="1.00" vaporized=""/>
    <tripinfo id="OD325_NV.1" depart="46.00" departLane="right0E0_0" departPos="5.10" departSpeed="10.00" departDelay="0.10" arrival="118.00" arrivalLane="E1right1_0" arrivalPos="286.40" arrivalSpeed="13.49" duration="72.00" routeLength="858.56" waitingTime="0.00" waitingCount="0" stopTime="0.00" timeLoss="8.85" rerouteNo="0" devices="tripinfo_OD325_NV.1" vType="NV" speedFactor="1.00" vaporized=""/>
    <tripinfo id="OD160_NV.0" depart="47.00" departLane="right1E1_0" departPos="5.10" departSpeed="10.00" departDelay="0.58" arrival="118.00" arrivalLane="E2right2_0" arrivalPos="286.40" arrivalSpeed="13.21" duration="71.00" routeLength="858.56" waitingTime="0.00" waitingCount="0" stopTime="0.00" timeLoss="7.46" rerouteNo="0" devices="tripinfo_OD160_NV.0" vType="NV" speedFactor="1.00" vaporized=""/>
    <tripinfo id="OD307_NV.0" depart="73.00" departLane="left0A0_0" departPos="5.10" departSpeed="10.00" departDelay="0.52" arrival="120.00" arrivalLane="A0bottom0_0" arrivalPos="286.40" arrivalSpeed="13.83" duration="47.00" routeLength="576.73" waitingTime="0.00" waitingCount="0" stopTime="0.00" timeLoss="4.41" rerouteNo="0" devices="tripinfo_OD307_NV.0" vType="NV" speedFactor="1.00" vaporized=""/>
    <tripinfo id="OD332_NV.0" depart="10.00" departLane="right0E0_0" departPos="5.10" departSpeed="10.00" departDelay="0.53" arrival="122.00" arrivalLane="E2right2_0" arrivalPos="286.40" arrivalSpeed="12.68" duration="112.00" routeLength="1158.56" waitingTime="14.00" waitingCount="1" stopTime="0.00" timeLoss="26.34" rerouteNo="0" devices="tripinfo_OD332_NV.0" vType="NV" speedFactor="1.00" vaporized=""/>
    <tripinfo id="OD169_NV.0" depart="24.00" departLane="right1E1_0" departPos="5.10" departSpeed="10.00" departDelay="0.41" arrival="122.00" arrivalLane="E3right3_0" arrivalPos="286.40" arrivalSpeed="13.77" duration="98.00" routeLength="1158.56" waitingTime="0.00" waitingCount="0" stopTime="0.00" timeLoss="12.56" rerouteNo="0" devices="tripinfo_OD169_NV.0" vType="NV" speedFactor="1.00" vaporized=""/>
    <tripinfo id="OD16_NV.0" depart="11.00" departLane="left4A4_0" departPos="5.10" departSpeed="10.00" departDelay="0.23" arrival="123.00" arrivalLane="A2left2_0" arrivalPos="286.40" arrivalSpeed="13.01" duration="112.00" routeLength="1158.56" waitingTime="11.00" waitingCount="1" stopTime="0.00" timeLoss="27.05" rerouteNo="0" devices="tripinfo_OD16_NV.0" vType="NV" speedFactor="1.00" vaporized=""/>
    <tripinfo id="OD116_NV.0" depart="19.00" departLane="bottom3D0_0" departPos="5.10" departSpeed="10.00" departDelay="0.11" arrival="125.00" arrivalLane="E1right1_0" arrivalPos="286.40" arrivalSpeed="12.49" duration="106.00" routeLength="1155.87" waitingTime="7.00" waitingCount="1" stopTime="0.00" timeLoss="20.14" rerouteNo="0" devices="tripinfo_OD116_NV.0" vType="NV" speedFactor="1.00" vaporized=""/>
    <tripinfo id="OD231_RV.0" depart="38.00" departLane="left1A1_0" departPos="5.10" departSpeed="10.00" departDelay="0.13" arrival="125.00" arrivalLane="A0bottom0_1" arrivalPos="286.40" arrivalSpeed="13.14" duration="87.00" routeLength="876.73" waitingTime="14.00" waitingCount="1" stopTime="0.00" timeLoss="23.39" rerouteNo="0" devices="tripinfo_OD231_RV.0" vType="RV" speedFactor="1.00" vaporized=""/>
    <tripinfo id="OD112_NV.0" depart="54.00" departLane="right2E2_0" departPos="5.10" departSpeed="10.00" departDelay="0.33" arrival="125.00" arrivalLane="E3right3_0" arrivalPos="286.40" arrivalSpeed="13.41" duration="71.00" routeLength="858.56" waitingTime="0.00" waitingCount="0" stopTime="0.00" timeLoss="7.57" rerouteNo="0" devices="tripinfo_OD112_NV.0" vType="NV" speedFactor="1.00" vaporized=""/>
    <tripinfo id="OD180_NV.0" depart="56.00" departLane="right3E3_0" departPos="5.10" departSpeed="10.00" departDelay="0.93" arrival="126.00" arrivalLane="E4right4_0" arrivalPos="286.40" arrivalSpeed="13.63" duration="70.00" routeLength="858.56" waitingTime="0.00" waitingCount="0" stopTime="0.00" timeLoss="6.59" rerouteNo="0" devices="tripinfo_OD180_NV.0" vType="NV" speedFactor="1.00" vaporized=""/>
    <tripinfo id="OD218_NV.0" depart="10.00" departLane="top4E4_0" departPos="5.10" departSpeed="10.00" departDelay="1.36" arrival="127.00" arrivalLane="E2right2_2" arrivalPos="286.40" arrivalSpeed="12.78" duration="117.00" routeLength="1192.21" waitingTime="10.00" waitingCount="2" stopTime="0.00" timeLoss="30.37" rerouteNo="0" devices="tripinfo_OD218_NV.0" vType="NV" speedFactor="1.00" vaporized=""/>
    <tripinfo id="OD219_RV.0" depart="45.00" departLane="top4E4_0" departPos="5.10" departSpeed="10.00" departDelay="0.91" arrival="129.00" arrivalLane="E4right4_2" arrivalPos="286.40" arrivalSpeed="13.12" duration="84.00" routeLength="592.21" waitingTime="33.00" waitingCount="1" stopTime="0.00" timeLoss="40.55" rerouteNo="0" devices="tripinfo_OD219_RV.0" vType="RV" speedFactor="1.00" vaporized=""/>
    <tripinfo id="OD160_NV.1" depart="60.00" departLane="right1E1_0" departPos="5.10" departSpeed="10.00" departDelay="0.98" arrival="131.00" arrivalLane="E2right2_0" arrivalPos="286.40" arrivalSpeed="13.78" duration="71.00" routeLength="858.56" waitingTime="0.00" waitingCount="0" stopTime="0.00" timeLoss="7.96" rerouteNo="0" devices="tripinfo_OD160_NV.1" vType="NV" speedFactor="1.00" vaporized=""/>
    <tripinfo id="OD227_NV.0" depart="13.00" departLane="top4E4_0" departPos="5.10" departSpeed="10.00" departDelay="0.20" arrival="132.00" arrivalLane="C4top2_0" arrivalPos="286.40" arrivalSpeed="13.79" duration="119.00" routeLength="1158.56" waitingTime="20.00" waitingCount="1" stopTime="0.00" timeLoss="34.08" rerouteNo="0" devices="tripinfo_OD227_NV.0" vType="NV" speedFactor="1.00" vaporized=""/>
    <tripinfo id="OD307_NV.1" depart="85.00" departLane="left0A0_0" departPos="5.10" departSpeed="10.00" departDelay="0.55" arrival="132.00" arrivalLane="A0bottom0_0" arrivalPos="286.40" arrivalSpeed="13.12" duration="47.00" routeLength="576.73" waitingTime="0.00" waitingCount="0" stopTime="0.00" timeLoss="4.44" rerouteNo="0" devices="tripinfo_OD307_NV.1" vType="NV" speedFactor="1.00" vaporized=""/>
    <tripinfo id="OD297_NV.0" depart="39.00" departLane="right4E4_0" departPos="5.10" departSpeed="10.00" departDelay="0.68" arrival="134.00" arrivalLane="D4top3_0" arrivalPos="286.40" arrivalSpeed="12.48" duration="95.00" routeLength="876.73" waitingTime="11.00" waitingCount="1" stopTime="0.00" timeLoss="31.05" rerouteNo="0" devices="tripinfo_OD297_NV.0" vType="NV" speedFactor="1.00" vaporized=""/>
    <tripinfo id="OD10_NV.0" depart="59.00" departLane="left4A4_0" departPos="5.10" departSpeed="10.00" departDelay="0.97" arrival="136.00" arrivalLane="A4top0_2" arrivalPos="286.40" arrivalSpeed="13.72" duration="77.00" routeLength="592.21" waitingTime="25.00" waitingCount="1" stopTime="0.00" timeLoss="33.24" rerouteNo="0" devices="tripinfo_OD10_NV.0" vType="NV" speedFactor="1.00" vaporized=""/>
    <tripinfo id="OD121_NV.0" depart="69.00" departLane="bottom3D0_0" departPos="5.10" departSpeed="10.00" departDelay="1.15" arrival="139.00" arrivalLane="E0bottom4_0" arrivalPos="286.40" arrivalSpeed="12.95" duration="70.00" routeLength="858.56" waitingTime="0.00" waitingCount="0" stopTime="0.00" timeLoss="7.03" rerouteNo="0" devices="tripinfo_OD121_NV.0" vType="NV" speedFactor="1.00" vaporized=""/>
    <tripinfo id="OD0_RV.0" depart="37.00" departLane="left4A4_0" departPos="5.10" departSpeed="10.00" departDelay="0.51" arrival="140.00" arrivalLane="B4top1_2" arrivalPos="286.40" arrivalSpeed="12.56" duration="103.00" routeLength="892.21" waitingTime="24.00" waitingCount="2" stopTime="0.00" timeLoss="37.29" rerouteNo="0" devices="tripinfo_OD0_RV.0" vType="RV" speedFactor="1.00" vaporized=""/>
    <tripinfo id="OD202_NV.0" depart="68.00" departLane="bottom0A0_0" departPos="5.10" departSpeed="10.00" departDelay="0.52" arrival="140.00" arrivalLane="B0bottom1_0" arrivalPos="286.40" arrivalSpeed="13.66" duration="72.00" routeLength="858.56" waitingTime="0.00" waitingCount="0" stopTime="0.00" timeLoss="7.73" rerouteNo="0" devices="tripinfo_OD202_NV.0" vType="NV" speedFactor="1.00" vaporized=""/>
    <tripinfo id="OD28_NV.0" depart="24.00" departLane="top2C4_0" departPos="5.10" departSpeed="10.00" departDelay="2.39" arrival="142.00" arrivalLane="E4right4_1" arrivalPos="286.40" arrivalSpeed="12.71" duration="118.00" routeLength="1192.21" waitingTime="14.00" waitingCount="2" stopTime="0.00" timeLoss="31.01" rerouteNo="0" devices="tripinfo_OD28_NV.0" vType="NV" speedFactor="1.00" vaporized=""/>
    <tripinfo id="OD120_NV.0" depart="5.00" departLane="bottom3D0_0" departPos="5.10" departSpeed="10.00" departDelay="0.01" arrival="146.00" arrivalLane="A0left0_1" arrivalPos="286.40" arrivalSpeed="13.74" duration="141.00" routeLength="1492.21" waitingTime="11.00" waitingCount="3" stopTime="0.00" timeLoss="32.19" rerouteNo="0" devices="tripinfo_OD120_NV.0" vType="NV" speedFactor="1.00" vaporized=""/>
    <tripinfo id="OD16_NV.1" depart="43.00" departLane="left4A4_0" departPos="5.10" departSpeed="10.00" departDelay="0.06" arrival="146.00" arrivalLane="A2left2_0" arrivalPos="286.40" arrivalSpeed="13.22" duration="103.00" routeLength="1158.56" waitingTime="6.00" waitingCount="1" stopTime="0.00" timeLoss="17.96" rerouteNo="0" devices="tripinfo_OD16_NV.1" vType="NV" speedFactor="1.00" vaporized=""/>
    <tripinfo id="OD58_NV.0" depart="47.00" departLane="top0A4_0" departPos="5.10" departSpeed="10.00" departDelay="0.76" arrival="146.00" arrivalLane="B4top1_2" arrivalPos="286.40" arrivalSpeed="12.97" duration="99.00" routeLength="889.52" waitingTime="23.00" waitingCount="1" stopTime="0.00" timeLoss="33.99" rerouteNo="0" devices="tripinfo_OD58_NV.0" vType="NV" speedFactor="1.00" vaporized=""/>
    <tripinfo id="OD353_NV.0" depart="76.00" departLane="top1B4_0" departPos="5.10" departSpeed="10.00" departDelay="0.63" arrival="146.00" arrivalLane="A4top0_0" arrivalPos="286.40" arrivalSpeed="13.87" duration="70.00" routeLength="858.56" waitingTime="0.00" waitingCount="0" stopTime="0.00" timeLoss="7.10" rerouteNo="0" devices="tripinfo_OD353_NV.0" vType="NV" speedFactor="1.00" vaporized=""/>
    <tripinfo id="OD320_NV.0" depart="10.00" departLane="left0A0_0" departPos="5.10" departSpeed="10.00" departDelay="0.22" arrival="147.00" arrivalLane="A2left2_2" arrivalPos="286.40" arrivalSpeed="13.84" duration="137.00" routeLength="1189.52" waitingTime="25.00" waitingCount="3" stopTime="0.00" timeLoss="49.65" rerouteNo="0" devices="tripinfo_OD320_NV.0" vType="NV" speedFactor="1.00" vaporized=""/>
    <tripinfo id="OD102_NV.0" depart="35.00" departLane="right2E2_0" departPos="5.10" departSpeed="10.00" departDelay="0.56" arrival="147.00" arrivalLane="E0bottom4_1" arrivalPos="286.40" arrivalSpeed="12.89" duration="112.00" routeLength="1192.21" waitingTime="10.00" waitingCount="1" stopTime="0.00" timeLoss="25.00" rerouteNo="0" devices="tripinfo_OD102_NV.0" vType="NV" speedFactor="1.00" vaporized=""/>
    <tripinfo id="OD240_NV.0" depart="48.00" departLane="left1A1_0" departPos="5.10" departSpeed="10.00" departDelay="0.69" arrival="147.00" arrivalLane="B0bottom1_1" arrivalPos="286.40" arrivalSpeed="12.42" duration="99.00" routeLength="1176.73" waitingTime="1.00" waitingCount="1" stopTime="0.00" timeLoss="13.65" rerouteNo="0" devices="tripinfo_OD240_NV.0" vType="NV" speedFactor="1.00" vaporized=""/>
    <tripinfo id="OD141_NV.0" depart="14.00" departLane="bottom4E0_0" departPos="5.10" departSpeed="10.00" departDelay="0.71" arrival="148.00" arrivalLane="E2right2_0" arrivalPos="286.40" arrivalSpeed="12.45" duration="134.00" routeLength="1176.73" waitingTime="21.00" waitingCount="2" stopTime="0.00" timeLoss="48.33" rerouteNo="0" devices="tripinfo_OD141_NV.0" vType="NV" speedFactor="1.00" vaporized=""/>
    <tripinfo id="OD232_NV.0" depart="11.00" departLane="left1A1_0" departPos="5.10" departSpeed="10.00" departDelay="0.82" arrival="149.00" arrivalLane="A3left3_2" arrivalPos="286.40" arrivalSpeed="13.72" duration="138.00" routeLength="1189.52" waitingTime="32.00" waitingCount="3" stopTime="0.00" timeLoss="50.41" rerouteNo="0" devices="tripinfo_OD232_NV.0" vType="NV" speedFactor="1.00" vaporized=""/>
    <tripinfo id="OD161_NV.0" depart="10.00" departLane="right1E1_0" departPos="5.10" departSpeed="10.00" departDelay="0.60" arrival="151.00" arrivalLane="E4right4_0" arrivalPos="286.40" arrivalSpeed="13.73" duration="141.00" routeLength="1458.56" waitingTime="16.00" waitingCount="2" stopTime="0.00" timeLoss="34.66" rerouteNo="0" devices="tripinfo_OD161_NV.0" vType="NV" speedFactor="1.00" vaporized=""/>
    <tripinfo id="OD228_NV.0" depart="10.00" departLane="left1A1_0" departPos="5.10" departSpeed="10.00" departDelay="0.17" arrival="152.00" arrivalLane="C0bottom2_0" arrivalPos="286.40" arrivalSpeed="13.78" duration="142.00" routeLength="1455.87" waitingTime="14.00" waitingCount="1" stopTime="0.00" timeLoss="34.94" rerouteNo="0" devices="tripinfo_OD228_NV.0" vType="NV" speedFactor="1.00" vaporized=""/>
    <tripinfo id="OD166_NV.0" depart="23.00" departLane="right1E1_0" departPos="5.10" departSpeed="10.00" departDelay="3.03" arrival="153.00" arrivalLane="E4top4_1" arrivalPos="286.40" arrivalSpeed="13.85" duration="130.00" routeLength="1476.73" waitingTime="3.00" waitingCount="1" stopTime="0.00" timeLoss="23.02" rerouteNo="0" devices="tripinfo_OD166_NV.0" vType="NV" speedFactor="1.00" vaporized=""/>
    <tripinfo id="OD182_NV.0" depart="44.00" departLane="right3E3_0" departPos="5.10" departSpeed="10.00" departDelay="0.45" arrival="153.00" arrivalLane="D4top3_0" arrivalPos="286.40" arrivalSpeed="12.46" duration="109.00" routeLength="1155.87" waitingTime="11.00" waitingCount="1" stopTime="0.00" timeLoss="22.87" rerouteNo="0" devices="tripinfo_OD182_NV.0" vType="NV" speedFactor="1.00" vaporized=""/>
    <tripinfo id="OD166_NV.1" depart="28.00" departLane="right1E1_0" departPos="5.10" departSpeed="10.00" departDelay="0.79" arrival="155.00" arrivalLane="E4top4_1" arrivalPos="286.40" arrivalSpeed="13.81" duration="127.00" routeLength="1476.73" waitingTime="2.00" waitingCount="1" stopTime="0.00" timeLoss="19.98" rerouteNo="0" devices="tripinfo_OD166_NV.1" vType="NV" speedFactor="1.00" vaporized=""/>
    <tripinfo id="OD361_NV.1" depart="84.00" departLane="bottom1B0_0" departPos="5.10" departSpeed="10.00" departDelay="0.32" arrival="155.00" arrivalLane="C0bottom2_0" arrivalPos="286.40" arrivalSpeed="13.33" duration="71.00" routeLength="858.56" waitingTime="0.00" waitingCount="0" stopTime="0.00" timeLoss="7.57" rerouteNo="0" devices="tripinfo_OD361_NV.1" vType="NV" speedFactor="1.00" vaporized=""/>
    <tripinfo id="OD360_NV.0" depart="28.00" departLane="top1B4_0" departPos="5.10" departSpeed="10.00" departDelay="0.47" arrival="157.00" arrivalLane="C4top2_2" arrivalPos="286.40" arrivalSpeed="13.06" duration="129.00" routeLength="889.52" waitingTime="50.00" waitingCount="2" stopTime="0.00" timeLoss="63.67" rerouteNo="0" devices="tripinfo_OD360_NV.0" vType="NV" speedFactor="1.00" vaporized=""/>
    <tripinfo id="OD169_NV.1" depart="43.00" departLane="right1E1_0" departPos="5.10" departSpeed="10.00" departDelay="0.06" arrival="157.00" arrivalLane="E3right3_0" arrivalPos="286.40" arrivalSpeed="13.27" duration="114.00" routeLength="1158.56" waitingTime="16.00" waitingCount="1" stopTime="0.00" timeLoss="29.07" rerouteNo="0" devices="tripinfo_OD169_NV.1" vType="NV" speedFactor="1.00" vaporized=""/>
    <tripinfo id="OD75_NV.0" depart="34.00" departLane="top0A4_0" departPos="5.10" departSpeed="10.00" departDelay="0.70" arrival="159.00" arrivalLane="C4top2_2" arrivalPos="286.40" arrivalSpeed="13.62" duration="125.00" routeLength="1189.52" waitingTime="15.00" waitingCount="2" stopTime="0.00" timeLoss="37.58" rerouteNo="0" devices="tripinfo_OD75_NV.0" vType="NV" speedFactor="1.00" vaporized=""/>
    <tripinfo id="OD152_NV.0" depart="17.00" departLane="right1E1_0" departPos="5.10" departSpeed="10.00" departDelay="0.59" arrival="160.00" arrivalLane="C0bottom2_2" arrivalPos="286.40" arrivalSpeed="13.13" duration="143.00" routeLength="1471.35" waitingTime="21.00" waitingCount="1" stopTime="0.00" timeLoss="34.43" rerouteNo="0" devices="tripinfo_OD152_NV.0" vType="NV" speedFactor="1.00" vaporized=""/>
    <tripinfo id="OD325_NV.2" depart="89.00" departLane="right0E0_0" departPos="5.10" departSpeed="10.00" departDelay="0.73" arrival="160.00" arrivalLane="E1right1_0" arrivalPos="286.40" arrivalSpeed="13.68" duration="71.00" routeLength="858.56" waitingTime="0.00" waitingCount="0" stopTime="0.00" timeLoss="7.06" rerouteNo="0" devices="tripinfo_OD325_NV.2" vType="NV" speedFactor="1.00" vaporized=""/>
    <tripinfo id="OD133_NV.0" depart="48.00" departLane="bottom4E0_0" departPos="5.10" departSpeed="10.00" departDelay="0.66" arrival="162.00" arrivalLane="C0bottom2_2" arrivalPos="286.40" arrivalSpeed="12.97" duration="114.00" routeLength="1189.52" waitingTime="14.00" waitingCount="1" stopTime="0.00" timeLoss="26.43" rerouteNo="0" devices="tripinfo_OD133_NV.0" vType="NV" speedFactor="1.00" vaporized=""/>
    <tripinfo id="OD44_NV.1" depart="60.00" departLane="left2A2_0" departPos="5.10" departSpeed="10.00" departDelay="0.59" arrival="162.00" arrivalLane="A0left0_0" arrivalPos="286.40" arrivalSpeed="13.46" duration="102.00" routeLength="1158.56" waitingTime="5.00" waitingCount="1" stopTime="0.00" timeLoss="17.18" rerouteNo="0" devices="tripinfo_OD44_NV.1" vType="NV" speedFactor="1.00" vaporized=""/>
    <tripinfo id="OD339_NV.0" depart="22.00" departLane="right0E0_0" departPos="5.10" departSpeed="10.00" departDelay="0.16" arrival="164.00" arrivalLane="D0bottom3_2" arrivalPos="286.40" arrivalSpeed="12.69" duration="142.00" routeLength="892.21" waitingTime="68.00" waitingCount="1" stopTime="0.00" timeLoss="77.00" rerouteNo="0" devices="tripinfo_OD339_NV.0" vType="NV" speedFactor="1.00" vaporized=""/>
    <tripinfo id="OD112_NV.1" depart="93.00" departLane="right2E2_0" departPos="5.10" departSpeed="10.00" departDelay="3.86" arrival="164.00" arrivalLane="E3right3_0" arrivalPos="286.40" arrivalSpeed="12.42" duration="71.00" routeLength="858.56" waitingTime="0.00" waitingCount="0" stopTime="0.00" timeLoss="7.51" rerouteNo="0" devices="tripinfo_OD112_NV.1" vType="NV" speedFactor="1.00" vaporized=""/>
    <tripinfo id="OD346_NV.0" depart="44.00" departLane="top1B4_0" departPos="5.10" departSpeed="10.00" departDelay="0.01" arrival="165.00" arrivalLane="A3left3_0" arrivalPos="286.40" arrivalSpeed="13.44" duration="121.00" routeLength="1155.87" waitingTime="20.00" waitingCount="1" stopTime="0.00" timeLoss="35.64" rerouteNo="0" devices="tripinfo_OD346_NV.0" vType="NV" speedFactor="1.00" vaporized=""/>
    <tripinfo id="OD195_NV.0" depart="71.00" departLane="bottom0A0_0" departPos="5.10" departSpeed="10.00" departDelay="0.90" arrival="165.00" arrivalLane="A1left1_2" arrivalPos="286.40" arrivalSpeed="13.18" duration="94.00" routeLength="892.21" waitingTime="15.00" waitingCount="2" stopTime="0.00" timeLoss="28.62" rerouteNo="0" devices="tripinfo_OD195_NV.0" vType="NV" speedFactor="1.00" vaporized=""/>
    <tripinfo id="OD197_NV.1" depart="103.00" departLane="bottom0A0_0" departPos="5.10" departSpeed="10.00" departDelay="0.53" arrival="165.00" arrivalLane="A0left0_2" arrivalPos="286.40" arrivalSpeed="12.72" duration="62.00" routeLength="592.21" waitingTime="11.00" waitingCount="1" stopTime="0.00" timeLoss="18.56" rerouteNo="0" devices="tripinfo_OD197_NV.1" vType="NV" speedFactor="1.00" vaporized=""/>
    <tripinfo id="OD108_NV.0" depart="26.00" departLane="right2E2_0" departPos="5.10" departSpeed="10.00" departDelay="0.88" arrival="166.00" arrivalLane="E0right0_2" arrivalPos="286.40" arrivalSpeed="13.76" duration="140.00" routeLength="1189.52" waitingTime="32.00" waitingCount="3" stopTime="0.00" timeLoss="52.66" rerouteNo="0" devices="tripinfo_OD108_NV.0" vType="NV" speedFactor="1.00" vaporized=""/>