<?xml version="1.0" encoding="UTF-8"?>

<!-- generated on 2025-02-25 14:51:27 by Eclipse SUMO sumo Version 1.20.0
<configuration xmlns:xsi="http://www.w3.org/2001/XMLSchema-instance" xsi:noNamespaceSchemaLocation="http://sumo.dlr.de/xsd/sumoConfiguration.xsd">

    <input>
        <net-file value="./envs/5x5/SV_pr/5x5.net.xml"/>
        <route-files value="./envs/5x5/SV_pr/Demand_80.rou.xml"/>
    </input>

    <output>
        <tripinfo-output value="./envs/5x5/SV_pr/tripinfo_MP_80.xml"/>
    </output>

    <time>
        <begin value="0"/>
    </time>

    <processing>
        <time-to-teleport value="-1"/>
        <waiting-time-memory value="1800"/>
    </processing>

    <report>
        <no-step-log value="true"/>
    </report>

    <traci_server>
        <remote-port value="54789"/>
    </traci_server>

</configuration>
-->

<tripinfos xmlns:xsi="http://www.w3.org/2001/XMLSchema-instance" xsi:noNamespaceSchemaLocation="http://sumo.dlr.de/xsd/tripinfo_file.xsd">
    <tripinfo id="OD149_RV.0" depart="7.00" departLane="top0A4_0" departPos="5.10" departSpeed="10.00" departDelay="0.02" arrival="53.00" arrivalLane="A4left4_0" arrivalPos="286.40" arrivalSpeed="13.79" duration="46.00" routeLength="576.73" waitingTime="0.00" waitingCount="0" stopTime="0.00" timeLoss="3.90" rerouteNo="0" devices="tripinfo_OD149_RV.0" vType="RV" speedFactor="1.00" vaporized=""/>
    <tripinfo id="OD190_NV.0" depart="8.00" departLane="bottom4E0_0" departPos="5.10" departSpeed="10.00" departDelay="0.02" arrival="55.00" arrivalLane="E0right0_0" arrivalPos="286.40" arrivalSpeed="13.83" duration="47.00" routeLength="576.73" waitingTime="0.00" waitingCount="0" stopTime="0.00" timeLoss="4.67" rerouteNo="0" devices="tripinfo_OD190_NV.0" vType="NV" speedFactor="1.00" vaporized=""/>
    <tripinfo id="OD190_RV.0" depart="15.00" departLane="bottom4E0_0" departPos="5.10" departSpeed="10.00" departDelay="2.53" arrival="62.00" arrivalLane="E0right0_0" arrivalPos="286.40" arrivalSpeed="13.66" duration="47.00" routeLength="576.73" waitingTime="0.00" waitingCount="0" stopTime="0.00" timeLoss="4.31" rerouteNo="0" devices="tripinfo_OD190_RV.0" vType="RV" speedFactor="1.00" vaporized=""/>
    <tripinfo id="OD149_NV.0" depart="18.00" departLane="top0A4_0" departPos="5.10" departSpeed="10.00" departDelay="0.00" arrival="65.00" arrivalLane="A4left4_0" arrivalPos="286.40" arrivalSpeed="13.36" duration="47.00" routeLength="576.73" waitingTime="0.00" waitingCount="0" stopTime="0.00" timeLoss="4.73" rerouteNo="0" devices="tripinfo_OD149_NV.0" vType="NV" speedFactor="1.00" vaporized=""/>
    <tripinfo id="OD190_RV.1" depart="25.00" departLane="bottom4E0_0" departPos="5.10" departSpeed="10.00" departDelay="0.02" arrival="72.00" arrivalLane="E0right0_0" arrivalPos="286.40" arrivalSpeed="13.36" duration="47.00" routeLength="576.73" waitingTime="0.00" waitingCount="0" stopTime="0.00" timeLoss="4.47" rerouteNo="0" devices="tripinfo_OD190_RV.1" vType="RV" speedFactor="1.00" vaporized=""/>
    <tripinfo id="OD186_RV.0" depart="2.00" departLane="top1B4_0" departPos="5.10" departSpeed="10.00" departDelay="0.70" arrival="73.00" arrivalLane="A4top0_0" arrivalPos="286.40" arrivalSpeed="13.44" duration="71.00" routeLength="858.56" waitingTime="0.00" waitingCount="0" stopTime="0.00" timeLoss="7.46" rerouteNo="0" devices="tripinfo_OD186_RV.0" vType="RV" speedFactor="1.00" vaporized=""/>
    <tripinfo id="OD244_RV.0" depart="9.00" departLane="left3A3_0" departPos="5.10" departSpeed="10.00" departDelay="1.64" arrival="79.00" arrivalLane="A4left4_2" arrivalPos="286.40" arrivalSpeed="13.65" duration="70.00" routeLength="889.52" waitingTime="0.00" waitingCount="0" stopTime="0.00" timeLoss="4.69" rerouteNo="0" devices="tripinfo_OD244_RV.0" vType="RV" speedFactor="1.00" vaporized=""/>
    <tripinfo id="OD287_RV.0" depart="8.00" departLane="top4E4_0" departPos="5.10" departSpeed="10.00" departDelay="0.56" arrival="79.00" arrivalLane="D4top3_0" arrivalPos="286.40" arrivalSpeed="12.47" duration="71.00" routeLength="858.56" waitingTime="0.00" waitingCount="0" stopTime="0.00" timeLoss="7.76" rerouteNo="0" devices="tripinfo_OD287_RV.0" vType="RV" speedFactor="1.00" vaporized=""/>
    <tripinfo id="OD215_RV.0" depart="9.00" departLane="bottom2C0_0" departPos="5.10" departSpeed="10.00" departDelay="0.89" arrival="79.00" arrivalLane="D0bottom3_0" arrivalPos="286.40" arrivalSpeed="13.18" duration="70.00" routeLength="858.56" waitingTime="0.00" waitingCount="0" stopTime="0.00" timeLoss="7.10" rerouteNo="0" devices="tripinfo_OD215_RV.0" vType="RV" speedFactor="1.00" vaporized=""/>
    <tripinfo id="OD20_RV.0" depart="2.00" departLane="top2C4_0" departPos="5.10" departSpeed="10.00" departDelay="0.73" arrival="80.00" arrivalLane="D4top3_2" arrivalPos="286.40" arrivalSpeed="12.72" duration="78.00" routeLength="889.52" waitingTime="4.00" waitingCount="1" stopTime="0.00" timeLoss="12.36" rerouteNo="0" devices="tripinfo_OD20_RV.0" vType="RV" speedFactor="1.00" vaporized=""/>
    <tripinfo id="OD328_RV.0" depart="11.00" departLane="right3E3_0" departPos="5.10" departSpeed="10.00" departDelay="0.04" arrival="82.00" arrivalLane="E4right4_0" arrivalPos="286.40" arrivalSpeed="12.99" duration="71.00" routeLength="858.56" waitingTime="0.00" waitingCount="0" stopTime="0.00" timeLoss="7.77" rerouteNo="0" devices="tripinfo_OD328_RV.0" vType="RV" speedFactor="1.00" vaporized=""/>
    <tripinfo id="OD215_RV.1" depart="10.00" departLane="bottom2C0_0" departPos="5.10" departSpeed="10.00" departDelay="1.31" arrival="83.00" arrivalLane="D0bottom3_0" arrivalPos="286.40" arrivalSpeed="12.74" duration="73.00" routeLength="858.56" waitingTime="0.00" waitingCount="0" stopTime="0.00" timeLoss="9.15" rerouteNo="0" devices="tripinfo_OD215_RV.1" vType="RV" speedFactor="1.00" vaporized=""/>
    <tripinfo id="OD187_RV.0" depart="5.00" departLane="top1B4_0" departPos="5.10" departSpeed="10.00" departDelay="0.79" arrival="84.00" arrivalLane="A4left4_1" arrivalPos="286.40" arrivalSpeed="12.98" duration="79.00" routeLength="876.73" waitingTime="7.00" waitingCount="1" stopTime="0.00" timeLoss="15.23" rerouteNo="0" devices="tripinfo_OD187_RV.0" vType="RV" speedFactor="1.00" vaporized=""/>
    <tripinfo id="OD374_RV.0" depart="12.00" departLane="bottom1B0_0" departPos="5.10" departSpeed="10.00" departDelay="2.10" arrival="84.00" arrivalLane="C0bottom2_0" arrivalPos="286.40" arrivalSpeed="12.70" duration="72.00" routeLength="858.56" waitingTime="0.00" waitingCount="0" stopTime="0.00" timeLoss="8.06" rerouteNo="0" devices="tripinfo_OD374_RV.0" vType="RV" speedFactor="1.00" vaporized=""/>
    <tripinfo id="OD58_RV.0" depart="6.00" departLane="left1A1_0" departPos="5.10" departSpeed="10.00" departDelay="0.38" arrival="87.00" arrivalLane="A0bottom0_1" arrivalPos="286.40" arrivalSpeed="13.77" duration="81.00" routeLength="876.73" waitingTime="8.00" waitingCount="1" stopTime="0.00" timeLoss="16.67" rerouteNo="0" devices="tripinfo_OD58_RV.0" vType="RV" speedFactor="1.00" vaporized=""/>
    <tripinfo id="OD360_RV.0" depart="17.00" departLane="top3D4_0" departPos="5.10" departSpeed="10.00" departDelay="1.56" arrival="87.00" arrivalLane="C4top2_0" arrivalPos="286.40" arrivalSpeed="13.05" duration="70.00" routeLength="858.56" waitingTime="0.00" waitingCount="0" stopTime="0.00" timeLoss="6.64" rerouteNo="0" devices="tripinfo_OD360_RV.0" vType="RV" speedFactor="1.00" vaporized=""/>
    <tripinfo id="OD149_RV.1" depart="40.00" departLane="top0A4_0" departPos="5.10" departSpeed="10.00" departDelay="0.33" arrival="87.00" arrivalLane="A4left4_0" arrivalPos="286.40" arrivalSpeed="13.01" duration="47.00" routeLength="576.73" waitingTime="0.00" waitingCount="0" stopTime="0.00" timeLoss="4.28" rerouteNo="0" devices="tripinfo_OD149_RV.1" vType="RV" speedFactor="1.00" vaporized=""/>
    <tripinfo id="OD49_RV.0" depart="20.00" departLane="right0E0_0" departPos="5.10" departSpeed="10.00" departDelay="0.19" arrival="91.00" arrivalLane="E1right1_0" arrivalPos="286.40" arrivalSpeed="13.22" duration="71.00" routeLength="858.56" waitingTime="0.00" waitingCount="0" stopTime="0.00" timeLoss="6.93" rerouteNo="0" devices="tripinfo_OD49_RV.0" vType="RV" speedFactor="1.00" vaporized=""/>
    <tripinfo id="OD328_RV.1" depart="24.00" departLane="right3E3_0" departPos="5.10" departSpeed="10.00" departDelay="0.18" arrival="94.00" arrivalLane="E4right4_0" arrivalPos="286.40" arrivalSpeed="13.31" duration="70.00" routeLength="858.56" waitingTime="0.00" waitingCount="0" stopTime="0.00" timeLoss="6.57" rerouteNo="0" devices="tripinfo_OD328_RV.1" vType="RV" speedFactor="1.00" vaporized=""/>
    <tripinfo id="OD243_NV.0" depart="10.00" departLane="left3A3_0" departPos="5.10" departSpeed="10.00" departDelay="1.36" arrival="98.00" arrivalLane="A4top0_1" arrivalPos="286.40" arrivalSpeed="13.07" duration="88.00" routeLength="892.21" waitingTime="13.00" waitingCount="1" stopTime="0.00" timeLoss="22.58" rerouteNo="0" devices="tripinfo_OD243_NV.0" vType="NV" speedFactor="1.00" vaporized=""/>
    <tripinfo id="OD74_RV.0" depart="34.00" departLane="left1A1_0" departPos="5.10" departSpeed="10.00" departDelay="0.05" arrival="104.00" arrivalLane="A0left0_0" arrivalPos="286.40" arrivalSpeed="12.89" duration="70.00" routeLength="858.56" waitingTime="0.00" waitingCount="0" stopTime="0.00" timeLoss="6.76" rerouteNo="0" devices="tripinfo_OD74_RV.0" vType="RV" speedFactor="1.00" vaporized=""/>
    <tripinfo id="OD123_RV.0" depart="21.00" departLane="right1E1_0" departPos="5.10" departSpeed="10.00" departDelay="0.10" arrival="105.00" arrivalLane="E0bottom4_1" arrivalPos="286.40" arrivalSpeed="12.57" duration="84.00" routeLength="892.21" waitingTime="11.00" waitingCount="1" stopTime="0.00" timeLoss="18.39" rerouteNo="0" devices="tripinfo_OD123_RV.0" vType="RV" speedFactor="1.00" vaporized=""/>
    <tripinfo id="OD201_RV.0" depart="21.00" departLane="bottom4E0_0" departPos="5.10" departSpeed="10.00" departDelay="0.44" arrival="106.00" arrivalLane="E1right1_0" arrivalPos="286.40" arrivalSpeed="13.55" duration="85.00" routeLength="876.73" waitingTime="8.00" waitingCount="1" stopTime="0.00" timeLoss="20.64" rerouteNo="0" devices="tripinfo_OD201_RV.0" vType="RV" speedFactor="1.00" vaporized=""/>
    <tripinfo id="OD3_NV.0" depart="8.00" departLane="left0A0_0" departPos="5.10" departSpeed="10.00" departDelay="0.36" arrival="107.00" arrivalLane="A1left1_2" arrivalPos="286.40" arrivalSpeed="13.70" duration="99.00" routeLength="889.52" waitingTime="26.00" waitingCount="1" stopTime="0.00" timeLoss="33.79" rerouteNo="0" devices="tripinfo_OD3_NV.0" vType="NV" speedFactor="1.00" vaporized=""/>
    <tripinfo id="OD287_RV.1" depart="38.00" departLane="top4E4_0" departPos="5.10" departSpeed="10.00" departDelay="0.03" arrival="109.00" arrivalLane="D4top3_0" arrivalPos="286.40" arrivalSpeed="13.30" duration="71.00" routeLength="858.56" waitingTime="0.00" waitingCount="0" stopTime="0.00" timeLoss="7.86" rerouteNo="0" devices="tripinfo_OD287_RV.1" vType="RV" speedFactor="1.00" vaporized=""/>
    <tripinfo id="OD308_RV.0" depart="12.00" departLane="bottom0A0_0" departPos="5.10" departSpeed="10.00" departDelay="6.39" arrival="110.00" arrivalLane="A1left1_2" arrivalPos="286.40" arrivalSpeed="12.46" duration="98.00" routeLength="892.21" waitingTime="17.00" waitingCount="1" stopTime="0.00" timeLoss="32.61" rerouteNo="0" devices="tripinfo_OD308_RV.0" vType="RV" speedFactor="1.00" vaporized=""/>
    <tripinfo id="OD212_RV.0" depart="20.00" departLane="bottom2C0_0" departPos="5.10" departSpeed="10.00" departDelay="0.31" arrival="111.00" arrivalLane="B0bottom1_2" arrivalPos="286.40" arrivalSpeed="12.65" duration="91.00" routeLength="889.52" waitingTime="15.00" waitingCount="1" stopTime="0.00" timeLoss="25.56" rerouteNo="0" devices="tripinfo_OD212_RV.0" vType="RV" speedFactor="1.00" vaporized=""/>
    <tripinfo id="OD215_RV.2" depart="41.00" departLane="bottom2C0_0" departPos="5.10" departSpeed="10.00" departDelay="0.68" arrival="111.00" arrivalLane="D0bottom3_0" arrivalPos="286.40" arrivalSpeed="12.66" duration="70.00" routeLength="858.56" waitingTime="0.00" waitingCount="0" stopTime="0.00" timeLoss="6.84" rerouteNo="0" devices="tripinfo_OD215_RV.2" vType="RV" speedFactor="1.00" vaporized=""/>
    <tripinfo id="OD308_RV.1" depart="26.00" departLane="bottom0A0_0" departPos="5.10" departSpeed="10.00" departDelay="0.53" arrival="112.00" arrivalLane="A1left1_2" arrivalPos="286.40" arrivalSpeed="12.68" duration="86.00" routeLength="892.21" waitingTime="10.00" waitingCount="1" stopTime="0.00" timeLoss="20.29" rerouteNo="0" devices="tripinfo_OD308_RV.1" vType="RV" speedFactor="1.00" vaporized=""/>
    <tripinfo id="OD33_RV.0" depart="43.00" departLane="top2C4_0" departPos="5.10" departSpeed="10.00" departDelay="0.91" arrival="113.00" arrivalLane="B4top1_0" arrivalPos="286.40" arrivalSpeed="13.48" duration="70.00" routeLength="858.56" waitingTime="0.00" waitingCount="0" stopTime="0.00" timeLoss="6.83" rerouteNo="0" devices="tripinfo_OD33_RV.0" vType="RV" speedFactor="1.00" vaporized=""/>
    <tripinfo id="OD334_RV.0" depart="44.00" departLane="right3E3_0" departPos="5.10" departSpeed="10.00" departDelay="0.70" arrival="113.00" arrivalLane="E4top4_1" arrivalPos="286.40" arrivalSpeed="13.81" duration="69.00" routeLength="876.73" waitingTime="0.00" waitingCount="0" stopTime="0.00" timeLoss="5.34" rerouteNo="0" devices="tripinfo_OD334_RV.0" vType="RV" speedFactor="1.00" vaporized=""/>
    <tripinfo id="OD317_RV.0" depart="15.00" departLane="bottom0A0_0" departPos="5.10" departSpeed="10.00" departDelay="0.92" arrival="114.00" arrivalLane="C0bottom2_0" arrivalPos="286.40" arrivalSpeed="12.46" duration="99.00" routeLength="1158.56" waitingTime="0.00" waitingCount="0" stopTime="0.00" timeLoss="12.92" rerouteNo="0" devices="tripinfo_OD317_RV.0" vType="RV" speedFactor="1.00" vaporized=""/>
    <tripinfo id="OD34_RV.0" depart="10.00" departLane="top2C4_0" departPos="5.10" departSpeed="10.00" departDelay="0.93" arrival="115.00" arrivalLane="A4top0_0" arrivalPos="286.40" arrivalSpeed="13.27" duration="105.00" routeLength="1158.56" waitingTime="7.00" waitingCount="1" stopTime="0.00" timeLoss="19.47" rerouteNo="0" devices="tripinfo_OD34_RV.0" vType="RV" speedFactor="1.00" vaporized=""/>
    <tripinfo id="OD360_RV.1" depart="46.00" departLane="top3D4_0" departPos="5.10" departSpeed="10.00" departDelay="0.10" arrival="118.00" arrivalLane="C4top2_0" arrivalPos="286.40" arrivalSpeed="12.96" duration="72.00" routeLength="858.56" waitingTime="0.00" waitingCount="0" stopTime="0.00" timeLoss="7.78" rerouteNo="0" devices="tripinfo_OD360_RV.1" vType="RV" speedFactor="1.00" vaporized=""/>
    <tripinfo id="OD45_RV.0" depart="6.00" departLane="right0E0_0" departPos="5.10" departSpeed="10.00" departDelay="0.70" arrival="119.00" arrivalLane="E2right2_0" arrivalPos="286.40" arrivalSpeed="12.97" duration="113.00" routeLength="1158.56" waitingTime="14.00" waitingCount="1" stopTime="0.00" timeLoss="27.94" rerouteNo="0" devices="tripinfo_OD45_RV.0" vType="RV" speedFactor="1.00" vaporized=""/>
    <tripinfo id="OD264_RV.0" depart="6.00" departLane="left2A2_0" departPos="5.10" departSpeed="10.00" departDelay="0.30" arrival="119.00" arrivalLane="A0left0_0" arrivalPos="286.40" arrivalSpeed="13.02" duration="113.00" routeLength="1158.56" waitingTime="14.00" waitingCount="1" stopTime="0.00" timeLoss="28.16" rerouteNo="0" devices="tripinfo_OD264_RV.0" vType="RV" speedFactor="1.00" vaporized=""/>
    <tripinfo id="OD331_RV.0" depart="27.00" departLane="right3E3_0" departPos="5.10" departSpeed="10.00" departDelay="0.68" arrival="119.00" arrivalLane="E2right2_2" arrivalPos="286.40" arrivalSpeed="13.13" duration="92.00" routeLength="889.52" waitingTime="9.00" waitingCount="2" stopTime="0.00" timeLoss="26.75" rerouteNo="0" devices="tripinfo_OD331_RV.0" vType="RV" speedFactor="1.00" vaporized=""/>
    <tripinfo id="OD163_NV.0" depart="16.00" departLane="right2E2_0" departPos="5.10" departSpeed="10.00" departDelay="0.58" arrival="121.00" arrivalLane="E1right1_2" arrivalPos="286.40" arrivalSpeed="13.81" duration="105.00" routeLength="889.52" waitingTime="30.00" waitingCount="1" stopTime="0.00" timeLoss="38.84" rerouteNo="0" devices="tripinfo_OD163_NV.0" vType="NV" speedFactor="1.00" vaporized=""/>
    <tripinfo id="OD108_NV.0" depart="52.00" departLane="left4A4_0" departPos="5.10" departSpeed="10.00" departDelay="0.99" arrival="122.00" arrivalLane="A3left3_0" arrivalPos="286.40" arrivalSpeed="13.63" duration="70.00" routeLength="858.56" waitingTime="0.00" waitingCount="0" stopTime="0.00" timeLoss="6.17" rerouteNo="0" devices="tripinfo_OD108_NV.0" vType="NV" speedFactor="1.00" vaporized=""/>
    <tripinfo id="OD367_RV.0" depart="10.00" departLane="bottom1B0_0" departPos="5.10" departSpeed="10.00" departDelay="0.53" arrival="124.00" arrivalLane="D0bottom3_0" arrivalPos="286.40" arrivalSpeed="12.78" duration="114.00" routeLength="1158.56" waitingTime="14.00" waitingCount="1" stopTime="0.00" timeLoss="28.98" rerouteNo="0" devices="tripinfo_OD367_RV.0" vType="RV" speedFactor="1.00" vaporized=""/>
    <tripinfo id="OD201_RV.1" depart="37.00" departLane="bottom4E0_0" departPos="5.10" departSpeed="10.00" departDelay="0.40" arrival="127.00" arrivalLane="E1right1_0" arrivalPos="286.40" arrivalSpeed="12.45" duration="90.00" routeLength="876.73" waitingTime="12.00" waitingCount="1" stopTime="0.00" timeLoss="25.29" rerouteNo="0" devices="tripinfo_OD201_RV.1" vType="RV" speedFactor="1.00" vaporized=""/>
    <tripinfo id="OD284_RV.0" depart="23.00" departLane="right4E4_0" departPos="5.10" departSpeed="10.00" departDelay="2.14" arrival="128.00" arrivalLane="C4top2_0" arrivalPos="286.40" arrivalSpeed="12.73" duration="105.00" routeLength="1176.73" waitingTime="9.00" waitingCount="1" stopTime="0.00" timeLoss="18.91" rerouteNo="0" devices="tripinfo_OD284_RV.0" vType="RV" speedFactor="1.00" vaporized=""/>
    <tripinfo id="OD321_RV.0" depart="20.00" departLane="bottom0A0_0" departPos="5.10" departSpeed="10.00" departDelay="0.96" arrival="129.00" arrivalLane="A0left0_2" arrivalPos="286.40" arrivalSpeed="13.34" duration="109.00" routeLength="592.21" waitingTime="57.00" waitingCount="1" stopTime="0.00" timeLoss="65.77" rerouteNo="0" devices="tripinfo_OD321_RV.0" vType="RV" speedFactor="1.00" vaporized=""/>
    <tripinfo id="OD277_RV.0" depart="83.00" departLane="right4E4_0" departPos="5.10" departSpeed="10.00" departDelay="0.27" arrival="130.00" arrivalLane="E4top4_0" arrivalPos="286.40" arrivalSpeed="13.30" duration="47.00" routeLength="576.73" waitingTime="0.00" waitingCount="0" stopTime="0.00" timeLoss="4.35" rerouteNo="0" devices="tripinfo_OD277_RV.0" vType="RV" speedFactor="1.00" vaporized=""/>
    <tripinfo id="OD162_RV.0" depart="33.00" departLane="right2E2_0" departPos="5.10" departSpeed="10.00" departDelay="1.09" arrival="131.00" arrivalLane="E4top4_1" arrivalPos="286.40" arrivalSpeed="13.19" duration="98.00" routeLength="1176.73" waitingTime="0.00" waitingCount="0" stopTime="0.00" timeLoss="12.13" rerouteNo="0" devices="tripinfo_OD162_RV.0" vType="RV" speedFactor="1.00" vaporized=""/>
    <tripinfo id="OD201_NV.0" depart="56.00" departLane="bottom4E0_0" departPos="5.10" departSpeed="10.00" departDelay="0.93" arrival="131.00" arrivalLane="E1right1_0" arrivalPos="286.40" arrivalSpeed="13.15" duration="75.00" routeLength="876.73" waitingTime="0.00" waitingCount="0" stopTime="0.00" timeLoss="11.21" rerouteNo="0" devices="tripinfo_OD201_NV.0" vType="NV" speedFactor="1.00" vaporized=""/>
    <tripinfo id="OD321_RV.1" depart="74.00" departLane="bottom0A0_0" departPos="5.10" departSpeed="10.00" departDelay="0.95" arrival="131.00" arrivalLane="A0left0_2" arrivalPos="286.40" arrivalSpeed="13.56" duration="57.00" routeLength="592.21" waitingTime="5.00" waitingCount="1" stopTime="0.00" timeLoss="13.44" rerouteNo="0" devices="tripinfo_OD321_RV.1" vType="RV" speedFactor="1.00" vaporized=""/>
    <tripinfo id="OD374_RV.1" depart="60.00" departLane="bottom1B0_0" departPos="5.10" departSpeed="10.00" departDelay="0.36" arrival="132.00" arrivalLane="C0bottom2_0" arrivalPos="286.40" arrivalSpeed="12.51" duration="72.00" routeLength="858.56" waitingTime="0.00" waitingCount="0" stopTime="0.00" timeLoss="8.03" rerouteNo="0" devices="tripinfo_OD374_RV.1" vType="RV" speedFactor="1.00" vaporized=""/>
    <tripinfo id="OD321_RV.2" depart="78.00" departLane="bottom0A0_0" departPos="5.10" departSpeed="10.00" departDelay="0.12" arrival="133.00" arrivalLane="A0left0_2" arrivalPos="286.40" arrivalSpeed="12.50" duration="55.00" routeLength="592.21" waitingTime="3.00" waitingCount="1" stopTime="0.00" timeLoss="11.52" rerouteNo="0" devices="tripinfo_OD321_RV.2" vType="RV" speedFactor="1.00" vaporized=""/>
    <tripinfo id="OD151_RV.0" depart="12.00" departLane="top0A4_0" departPos="5.10" departSpeed="10.00" departDelay="0.31" arrival="134.00" arrivalLane="C4top2_2" arrivalPos="286.40" arrivalSpeed="13.24" duration="122.00" routeLength="1189.52" waitingTime="18.00" waitingCount="2" stopTime="0.00" timeLoss="34.93" rerouteNo="0" devices="tripinfo_OD151_RV.0" vType="RV" speedFactor="1.00" vaporized=""/>
    <tripinfo id="OD215_RV.3" depart="64.00" departLane="bottom2C0_0" departPos="5.10" departSpeed="10.00" departDelay="0.10" arrival="134.00" arrivalLane="D0bottom3_0" arrivalPos="286.40" arrivalSpeed="13.78" duration="70.00" routeLength="858.56" waitingTime="0.00" waitingCount="0" stopTime="0.00" timeLoss="6.51" rerouteNo="0" devices="tripinfo_OD215_RV.3" vType="RV" speedFactor="1.00" vaporized=""/>
    <tripinfo id="OD328_NV.0" depart="65.00" departLane="right3E3_0" departPos="5.10" departSpeed="10.00" departDelay="0.72" arrival="135.00" arrivalLane="E4right4_0" arrivalPos="286.40" arrivalSpeed="13.32" duration="70.00" routeLength="858.56" waitingTime="0.00" waitingCount="0" stopTime="0.00" timeLoss="6.66" rerouteNo="0" devices="tripinfo_OD328_NV.0" vType="NV" speedFactor="1.00" vaporized=""/>
    <tripinfo id="OD246_RV.0" depart="2.00" departLane="left3A3_0" departPos="5.10" departSpeed="10.00" departDelay="0.05" arrival="136.00" arrivalLane="C4top2_2" arrivalPos="286.40" arrivalSpeed="13.56" duration="134.00" routeLength="1471.35" waitingTime="9.00" waitingCount="1" stopTime="0.00" timeLoss="25.20" rerouteNo="0" devices="tripinfo_OD246_RV.0" vType="RV" speedFactor="1.00" vaporized=""/>
    <tripinfo id="OD190_RV.2" depart="89.00" departLane="bottom4E0_0" departPos="5.10" departSpeed="10.00" departDelay="0.09" arrival="136.00" arrivalLane="E0right0_0" arrivalPos="286.40" arrivalSpeed="12.83" duration="47.00" routeLength="576.73" waitingTime="0.00" waitingCount="0" stopTime="0.00" timeLoss="4.20" rerouteNo="0" devices="tripinfo_OD190_RV.2" vType="RV" speedFactor="1.00" vaporized=""/>
    <tripinfo id="OD187_RV.1" depart="25.00" departLane="top1B4_0" departPos="5.10" departSpeed="10.00" departDelay="1.41" arrival="137.00" arrivalLane="A4left4_1" arrivalPos="286.40" arrivalSpeed="12.66" duration="112.00" routeLength="876.73" waitingTime="36.00" waitingCount="1" stopTime="0.00" timeLoss="47.59" rerouteNo="0" devices="tripinfo_OD187_RV.1" vType="RV" speedFactor="1.00" vaporized=""/>
    <tripinfo id="OD178_RV.0" depart="10.00" departLane="top1B4_0" departPos="5.10" departSpeed="10.00" departDelay="0.60" arrival="138.00" arrivalLane="A2left2_0" arrivalPos="286.40" arrivalSpeed="12.83" duration="128.00" routeLength="1455.87" waitingTime="4.00" waitingCount="1" stopTime="0.00" timeLoss="21.18" rerouteNo="0" devices="tripinfo_OD178_RV.0" vType="RV" speedFactor="1.00" vaporized=""/>
    <tripinfo id="OD219_RV.0" depart="42.00" departLane="bottom2C0_0" departPos="5.10" departSpeed="10.00" departDelay="1.22" arrival="138.00" arrivalLane="E0bottom4_0" arrivalPos="286.40" arrivalSpeed="12.93" duration="96.00" routeLength="1158.56" waitingTime="0.00" waitingCount="0" stopTime="0.00" timeLoss="10.47" rerouteNo="0" devices="tripinfo_OD219_RV.0" vType="RV" speedFactor="1.00" vaporized=""/>
    <tripinfo id="OD178_RV.1" depart="20.00" departLane="top1B4_0" departPos="5.10" departSpeed="10.00" departDelay="1.39" arrival="140.00" arrivalLane="A2left2_0" arrivalPos="286.40" arrivalSpeed="12.49" duration="120.00" routeLength="1455.87" waitingTime="0.00" waitingCount="0" stopTime="0.00" timeLoss="13.32" rerouteNo="0" devices="tripinfo_OD178_RV.1" vType="RV" speedFactor="1.00" vaporized=""/>
    <tripinfo id="OD49_RV.1" depart="71.00" departLane="right0E0_0" departPos="5.10" departSpeed="10.00" departDelay="0.74" arrival="141.00" arrivalLane="E1right1_0" arrivalPos="286.40" arrivalSpeed="13.83" duration="70.00" routeLength="858.56" waitingTime="0.00" waitingCount="0" stopTime="0.00" timeLoss="6.65" rerouteNo="0" devices="tripinfo_OD49_RV.1" vType="RV" speedFactor="1.00" vaporized=""/>
    <tripinfo id="OD311_RV.0" depart="21.00" departLane="bottom0A0_0" departPos="5.10" departSpeed="10.00" departDelay="1.80" arrival="143.00" arrivalLane="A2left2_2" arrivalPos="286.40" arrivalSpeed="13.03" duration="122.00" routeLength="1192.21" waitingTime="21.00" waitingCount="2" stopTime="0.00" timeLoss="34.74" rerouteNo="0" devices="tripinfo_OD311_RV.0" vType="RV" speedFactor="1.00" vaporized=""/>
    <tripinfo id="OD190_RV.3" depart="96.00" departLane="bottom4E0_0" departPos="5.10" departSpeed="10.00" departDelay="0.11" arrival="143.00" arrivalLane="E0right0_0" arrivalPos="286.40" arrivalSpeed="13.80" duration="47.00" routeLength="576.73" waitingTime="0.00" waitingCount="0" stopTime="0.00" timeLoss="4.43" rerouteNo="0" devices="tripinfo_OD190_RV.3" vType="RV" speedFactor="1.00" vaporized=""/>
    <tripinfo id="OD341_RV.0" depart="21.00" departLane="right3E3_0" departPos="5.10" departSpeed="10.00" departDelay="0.17" arrival="147.00" arrivalLane="C4top2_0" arrivalPos="286.40" arrivalSpeed="13.72" duration="126.00" routeLength="1455.87" waitingTime="5.00" waitingCount="1" stopTime="0.00" timeLoss="19.07" rerouteNo="0" devices="tripinfo_OD341_RV.0" vType="RV" speedFactor="1.00" vaporized=""/>
    <tripinfo id="OD158_RV.1" depart="13.00" departLane="right2E2_0" departPos="5.10" departSpeed="10.00" departDelay="1.11" arrival="148.00" arrivalLane="D0bottom3_1" arrivalPos="286.40" arrivalSpeed="12.76" duration="135.00" routeLength="1492.21" waitingTime="9.00" waitingCount="2" stopTime="0.00" timeLoss="26.17" rerouteNo="0" devices="tripinfo_OD158_RV.1" vType="RV" speedFactor="1.00" vaporized=""/>
    <tripinfo id="OD347_RV.0" depart="57.00" departLane="top3D4_0" departPos="5.10" departSpeed="10.00" departDelay="0.63" arrival="148.00" arrivalLane="E4right4_1" arrivalPos="286.40" arrivalSpeed="13.17" duration="91.00" routeLength="892.21" waitingTime="16.00" waitingCount="1" stopTime="0.00" timeLoss="25.63" rerouteNo="0" devices="tripinfo_OD347_RV.0" vType="RV" speedFactor="1.00" vaporized=""/>
    <tripinfo id="OD186_RV.1" depart="77.00" departLane="top1B4_0" departPos="5.10" departSpeed="10.00" departDelay="1.22" arrival="148.00" arrivalLane="A4top0_0" arrivalPos="286.40" arrivalSpeed="12.80" duration="71.00" routeLength="858.56" waitingTime="0.00" waitingCount="0" stopTime="0.00" timeLoss="7.57" rerouteNo="0" devices="tripinfo_OD186_RV.1" vType="RV" speedFactor="1.00" vaporized=""/>
    <tripinfo id="OD49_NV.0" depart="78.00" departLane="right0E0_0" departPos="5.10" departSpeed="10.00" departDelay="0.36" arrival="148.00" arrivalLane="E1right1_0" arrivalPos="286.40" arrivalSpeed="13.11" duration="70.00" routeLength="858.56" waitingTime="0.00" waitingCount="0" stopTime="0.00" timeLoss="6.59" rerouteNo="0" devices="tripinfo_OD49_NV.0" vType="NV" speedFactor="1.00" vaporized=""/>
    <tripinfo id="OD310_RV.0" depart="4.00" departLane="bottom0A0_0" departPos="5.10" departSpeed="10.00" departDelay="1.48" arrival="149.00" arrivalLane="D0bottom3_0" arrivalPos="286.40" arrivalSpeed="13.77" duration="145.00" routeLength="1458.56" waitingTime="16.00" waitingCount="2" stopTime="0.00" timeLoss="37.83" rerouteNo="0" devices="tripinfo_OD310_RV.0" vType="RV" speedFactor="1.00" vaporized=""/>
    <tripinfo id="OD20_NV.0" depart="40.00" departLane="top2C4_0" departPos="5.10" departSpeed="10.00" departDelay="0.68" arrival="149.00" arrivalLane="D4top3_2" arrivalPos="286.40" arrivalSpeed="13.49" duration="109.00" routeLength="889.52" waitingTime="29.00" waitingCount="2" stopTime="0.00" timeLoss="43.18" rerouteNo="0" devices="tripinfo_OD20_NV.0" vType="NV" speedFactor="1.00" vaporized=""/>
    <tripinfo id="OD63_RV.0" depart="55.00" departLane="left1A1_0" departPos="5.10" departSpeed="10.00" departDelay="0.81" arrival="149.00" arrivalLane="A2left2_2" arrivalPos="286.40" arrivalSpeed="13.80" duration="94.00" routeLength="889.52" waitingTime="15.00" waitingCount="1" stopTime="0.00" timeLoss="28.13" rerouteNo="0" devices="tripinfo_OD63_RV.0" vType="RV" speedFactor="1.00" vaporized=""/>
    <tripinfo id="OD244_RV.1" depart="45.00" departLane="left3A3_0" departPos="5.10" departSpeed="10.00" departDelay="0.91" arrival="150.00" arrivalLane="A4left4_2" arrivalPos="286.40" arrivalSpeed="13.29" duration="105.00" routeLength="889.52" waitingTime="25.00" waitingCount="2" stopTime="0.00" timeLoss="39.20" rerouteNo="0" devices="tripinfo_OD244_RV.1" vType="RV" speedFactor="1.00" vaporized=""/>
    <tripinfo id="OD367_RV.1" depart="41.00" departLane="bottom1B0_0" departPos="5.10" departSpeed="10.00" departDelay="0.75" arrival="151.00" arrivalLane="D0bottom3_0" arrivalPos="286.40" arrivalSpeed="12.95" duration="110.00" routeLength="1158.56" waitingTime="10.00" waitingCount="1" stopTime="0.00" timeLoss="25.10" rerouteNo="0" devices="tripinfo_OD367_RV.1" vType="RV" speedFactor="1.00" vaporized=""/>
    <tripinfo id="OD317_RV.1" depart="42.00" departLane="bottom0A0_0" departPos="5.10" departSpeed="10.00" departDelay="0.29" arrival="151.00" arrivalLane="C0bottom2_0" arrivalPos="286.40" arrivalSpeed="12.77" duration="109.00" routeLength="1158.56" waitingTime="9.00" waitingCount="1" stopTime="0.00" timeLoss="24.13" rerouteNo="0" devices="tripinfo_OD317_RV.1" vType="RV" speedFactor="1.00" vaporized=""/>