<?xml version="1.0" encoding="UTF-8"?>

<!-- generated on 2025-02-25 02:46:21 by Eclipse SUMO sumo Version 1.20.0
<configuration xmlns:xsi="http://www.w3.org/2001/XMLSchema-instance" xsi:noNamespaceSchemaLocation="http://sumo.dlr.de/xsd/sumoConfiguration.xsd">

    <input>
        <net-file value="./envs/5x5/SV_pr/5x5.net.xml"/>
        <route-files value="./envs/5x5/SV_pr/Demand_40.rou.xml"/>
    </input>

    <output>
        <tripinfo-output value="./envs/5x5/SV_pr/tripinfo_MP_40.xml"/>
    </output>

    <time>
        <begin value="0"/>
    </time>

    <processing>
        <time-to-teleport value="-1"/>
        <waiting-time-memory value="1800"/>
    </processing>

    <report>
        <no-step-log value="true"/>
    </report>

    <traci_server>
        <remote-port value="60550"/>
    </traci_server>

</configuration>
-->

<tripinfos xmlns:xsi="http://www.w3.org/2001/XMLSchema-instance" xsi:noNamespaceSchemaLocation="http://sumo.dlr.de/xsd/tripinfo_file.xsd">
    <tripinfo id="OD186_NV.0" depart="5.00" departLane="top1B4_0" departPos="5.10" departSpeed="10.00" departDelay="0.79" arrival="76.00" arrivalLane="A4top0_0" arrivalPos="286.40" arrivalSpeed="12.50" duration="71.00" routeLength="858.56" waitingTime="0.00" waitingCount="0" stopTime="0.00" timeLoss="8.00" rerouteNo="0" devices="tripinfo_OD186_NV.0" vType="NV" speedFactor="1.00" vaporized=""/>
    <tripinfo id="OD347_NV.0" depart="3.00" departLane="top3D4_0" departPos="5.10" departSpeed="10.00" departDelay="0.70" arrival="80.00" arrivalLane="E4right4_1" arrivalPos="286.40" arrivalSpeed="12.91" duration="77.00" routeLength="892.21" waitingTime="4.00" waitingCount="1" stopTime="0.00" timeLoss="11.36" rerouteNo="0" devices="tripinfo_OD347_NV.0" vType="NV" speedFactor="1.00" vaporized=""/>
    <tripinfo id="OD307_NV.0" depart="8.00" departLane="bottom0A0_0" departPos="5.10" departSpeed="10.00" departDelay="2.39" arrival="80.00" arrivalLane="B0bottom1_0" arrivalPos="286.40" arrivalSpeed="12.51" duration="72.00" routeLength="858.56" waitingTime="0.00" waitingCount="0" stopTime="0.00" timeLoss="8.08" rerouteNo="0" devices="tripinfo_OD307_NV.0" vType="NV" speedFactor="1.00" vaporized=""/>
    <tripinfo id="OD251_RV.0" depart="10.00" departLane="left2A2_0" departPos="5.10" departSpeed="10.00" departDelay="0.17" arrival="80.00" arrivalLane="A1left1_0" arrivalPos="286.40" arrivalSpeed="13.12" duration="70.00" routeLength="858.56" waitingTime="0.00" waitingCount="0" stopTime="0.00" timeLoss="6.79" rerouteNo="0" devices="tripinfo_OD251_RV.0" vType="RV" speedFactor="1.00" vaporized=""/>
    <tripinfo id="OD347_RV.0" depart="7.00" departLane="top3D4_0" departPos="5.10" departSpeed="10.00" departDelay="2.48" arrival="82.00" arrivalLane="E4right4_1" arrivalPos="286.40" arrivalSpeed="12.73" duration="75.00" routeLength="892.21" waitingTime="0.00" waitingCount="0" stopTime="0.00" timeLoss="9.42" rerouteNo="0" devices="tripinfo_OD347_RV.0" vType="RV" speedFactor="1.00" vaporized=""/>
    <tripinfo id="OD58_RV.0" depart="6.00" departLane="left1A1_0" departPos="5.10" departSpeed="10.00" departDelay="0.38" arrival="84.00" arrivalLane="A0bottom0_1" arrivalPos="286.40" arrivalSpeed="12.54" duration="78.00" routeLength="876.73" waitingTime="4.00" waitingCount="1" stopTime="0.00" timeLoss="13.72" rerouteNo="0" devices="tripinfo_OD58_RV.0" vType="RV" speedFactor="1.00" vaporized=""/>
    <tripinfo id="OD49_NV.0" depart="20.00" departLane="right0E0_0" departPos="5.10" departSpeed="10.00" departDelay="0.19" arrival="91.00" arrivalLane="E1right1_0" arrivalPos="286.40" arrivalSpeed="12.65" duration="71.00" routeLength="858.56" waitingTime="0.00" waitingCount="0" stopTime="0.00" timeLoss="8.00" rerouteNo="0" devices="tripinfo_OD49_NV.0" vType="NV" speedFactor="1.00" vaporized=""/>
    <tripinfo id="OD187_NV.0" depart="24.00" departLane="top1B4_0" departPos="5.10" departSpeed="10.00" departDelay="0.41" arrival="93.00" arrivalLane="A4left4_1" arrivalPos="286.40" arrivalSpeed="13.57" duration="69.00" routeLength="876.73" waitingTime="0.00" waitingCount="0" stopTime="0.00" timeLoss="5.27" rerouteNo="0" devices="tripinfo_OD187_NV.0" vType="NV" speedFactor="1.00" vaporized=""/>
    <tripinfo id="OD235_NV.0" depart="23.00" departLane="left3A3_0" departPos="5.10" departSpeed="10.00" departDelay="0.67" arrival="94.00" arrivalLane="A2left2_0" arrivalPos="286.40" arrivalSpeed="13.57" duration="71.00" routeLength="858.56" waitingTime="0.00" waitingCount="0" stopTime="0.00" timeLoss="7.42" rerouteNo="0" devices="tripinfo_OD235_NV.0" vType="NV" speedFactor="1.00" vaporized=""/>
    <tripinfo id="OD189_NV.0" depart="8.00" departLane="top1B4_0" departPos="5.10" departSpeed="10.00" departDelay="0.02" arrival="95.00" arrivalLane="C4top2_2" arrivalPos="286.40" arrivalSpeed="13.84" duration="87.00" routeLength="889.52" waitingTime="8.00" waitingCount="2" stopTime="0.00" timeLoss="21.12" rerouteNo="0" devices="tripinfo_OD189_NV.0" vType="NV" speedFactor="1.00" vaporized=""/>
    <tripinfo id="OD20_NV.0" depart="2.00" departLane="top2C4_0" departPos="5.10" departSpeed="10.00" departDelay="0.73" arrival="96.00" arrivalLane="D4top3_2" arrivalPos="286.40" arrivalSpeed="12.59" duration="94.00" routeLength="889.52" waitingTime="16.00" waitingCount="2" stopTime="0.00" timeLoss="28.26" rerouteNo="0" devices="tripinfo_OD20_NV.0" vType="NV" speedFactor="1.00" vaporized=""/>
    <tripinfo id="OD379_NV.0" depart="6.00" departLane="bottom1B0_0" departPos="5.10" departSpeed="10.00" departDelay="0.58" arrival="96.00" arrivalLane="A0left0_1" arrivalPos="286.40" arrivalSpeed="13.27" duration="90.00" routeLength="892.21" waitingTime="14.00" waitingCount="1" stopTime="0.00" timeLoss="24.33" rerouteNo="0" devices="tripinfo_OD379_NV.0" vType="NV" speedFactor="1.00" vaporized=""/>
    <tripinfo id="OD189_RV.0" depart="13.00" departLane="top1B4_0" departPos="5.10" departSpeed="10.00" departDelay="0.53" arrival="97.00" arrivalLane="C4top2_2" arrivalPos="286.40" arrivalSpeed="13.19" duration="84.00" routeLength="889.52" waitingTime="6.00" waitingCount="1" stopTime="0.00" timeLoss="18.09" rerouteNo="0" devices="tripinfo_OD189_RV.0" vType="RV" speedFactor="1.00" vaporized=""/>
    <tripinfo id="OD307_NV.1" depart="26.00" departLane="bottom0A0_0" departPos="5.10" departSpeed="10.00" departDelay="0.53" arrival="98.00" arrivalLane="B0bottom1_0" arrivalPos="286.40" arrivalSpeed="13.00" duration="72.00" routeLength="858.56" waitingTime="0.00" waitingCount="0" stopTime="0.00" timeLoss="8.13" rerouteNo="0" devices="tripinfo_OD307_NV.1" vType="NV" speedFactor="1.00" vaporized=""/>
    <tripinfo id="OD243_NV.0" depart="10.00" departLane="left3A3_0" departPos="5.10" departSpeed="10.00" departDelay="2.64" arrival="100.00" arrivalLane="A4top0_1" arrivalPos="286.40" arrivalSpeed="13.31" duration="90.00" routeLength="892.21" waitingTime="16.00" waitingCount="1" stopTime="0.00" timeLoss="24.17" rerouteNo="0" devices="tripinfo_OD243_NV.0" vType="NV" speedFactor="1.00" vaporized=""/>
    <tripinfo id="OD347_RV.1" depart="15.00" departLane="top3D4_0" departPos="5.10" departSpeed="10.00" departDelay="0.24" arrival="102.00" arrivalLane="E4right4_1" arrivalPos="286.40" arrivalSpeed="13.65" duration="87.00" routeLength="892.21" waitingTime="11.00" waitingCount="1" stopTime="0.00" timeLoss="21.77" rerouteNo="0" devices="tripinfo_OD347_RV.1" vType="RV" speedFactor="1.00" vaporized=""/>
    <tripinfo id="OD74_NV.0" depart="34.00" departLane="left1A1_0" departPos="5.10" departSpeed="10.00" departDelay="0.05" arrival="104.00" arrivalLane="A0left0_0" arrivalPos="286.40" arrivalSpeed="13.49" duration="70.00" routeLength="858.56" waitingTime="0.00" waitingCount="0" stopTime="0.00" timeLoss="6.62" rerouteNo="0" devices="tripinfo_OD74_NV.0" vType="NV" speedFactor="1.00" vaporized=""/>
    <tripinfo id="OD303_NV.0" depart="2.00" departLane="top4E4_0" departPos="5.10" departSpeed="10.00" departDelay="0.04" arrival="108.00" arrivalLane="C4top2_0" arrivalPos="286.40" arrivalSpeed="13.44" duration="106.00" routeLength="1158.56" waitingTime="5.00" waitingCount="1" stopTime="0.00" timeLoss="20.58" rerouteNo="0" devices="tripinfo_OD303_NV.0" vType="NV" speedFactor="1.00" vaporized=""/>
    <tripinfo id="OD328_RV.0" depart="39.00" departLane="right3E3_0" departPos="5.10" departSpeed="10.00" departDelay="0.68" arrival="110.00" arrivalLane="E4right4_0" arrivalPos="286.40" arrivalSpeed="13.79" duration="71.00" routeLength="858.56" waitingTime="0.00" waitingCount="0" stopTime="0.00" timeLoss="7.69" rerouteNo="0" devices="tripinfo_OD328_RV.0" vType="RV" speedFactor="1.00" vaporized=""/>
    <tripinfo id="OD45_NV.0" depart="6.00" departLane="right0E0_0" departPos="5.10" departSpeed="10.00" departDelay="0.70" arrival="111.00" arrivalLane="E2right2_0" arrivalPos="286.40" arrivalSpeed="13.86" duration="105.00" routeLength="1158.56" waitingTime="7.00" waitingCount="1" stopTime="0.00" timeLoss="20.10" rerouteNo="0" devices="tripinfo_OD45_NV.0" vType="NV" speedFactor="1.00" vaporized=""/>
    <tripinfo id="OD244_RV.0" depart="27.00" departLane="left3A3_0" departPos="5.10" departSpeed="10.00" departDelay="0.79" arrival="113.00" arrivalLane="A4left4_2" arrivalPos="286.40" arrivalSpeed="13.00" duration="86.00" routeLength="889.52" waitingTime="6.00" waitingCount="2" stopTime="0.00" timeLoss="20.27" rerouteNo="0" devices="tripinfo_OD244_RV.0" vType="RV" speedFactor="1.00" vaporized=""/>
    <tripinfo id="OD33_RV.0" depart="43.00" departLane="top2C4_0" departPos="5.10" departSpeed="10.00" departDelay="0.91" arrival="114.00" arrivalLane="B4top1_0" arrivalPos="286.40" arrivalSpeed="12.74" duration="71.00" routeLength="858.56" waitingTime="0.00" waitingCount="0" stopTime="0.00" timeLoss="7.14" rerouteNo="0" devices="tripinfo_OD33_RV.0" vType="RV" speedFactor="1.00" vaporized=""/>
    <tripinfo id="OD157_RV.0" depart="12.00" departLane="right2E2_0" departPos="5.10" departSpeed="10.00" departDelay="0.11" arrival="116.00" arrivalLane="E4right4_0" arrivalPos="286.40" arrivalSpeed="12.71" duration="104.00" routeLength="1158.56" waitingTime="4.00" waitingCount="1" stopTime="0.00" timeLoss="19.33" rerouteNo="0" devices="tripinfo_OD157_RV.0" vType="RV" speedFactor="1.00" vaporized=""/>
    <tripinfo id="OD162_NV.0" depart="16.00" departLane="right2E2_0" departPos="5.10" departSpeed="10.00" departDelay="0.58" arrival="116.00" arrivalLane="E4top4_1" arrivalPos="286.40" arrivalSpeed="12.58" duration="100.00" routeLength="1176.73" waitingTime="1.00" waitingCount="1" stopTime="0.00" timeLoss="14.82" rerouteNo="0" devices="tripinfo_OD162_NV.0" vType="NV" speedFactor="1.00" vaporized=""/>
    <tripinfo id="OD263_NV.0" depart="6.00" departLane="left2A2_0" departPos="5.10" departSpeed="10.00" departDelay="0.30" arrival="118.00" arrivalLane="A4left4_2" arrivalPos="286.40" arrivalSpeed="13.78" duration="112.00" routeLength="1189.52" waitingTime="13.00" waitingCount="1" stopTime="0.00" timeLoss="25.14" rerouteNo="0" devices="tripinfo_OD263_NV.0" vType="NV" speedFactor="1.00" vaporized=""/>
    <tripinfo id="OD264_RV.0" depart="18.00" departLane="left2A2_0" departPos="5.10" departSpeed="10.00" departDelay="0.22" arrival="119.00" arrivalLane="A0left0_0" arrivalPos="286.40" arrivalSpeed="12.60" duration="101.00" routeLength="1158.56" waitingTime="2.00" waitingCount="1" stopTime="0.00" timeLoss="15.98" rerouteNo="0" devices="tripinfo_OD264_RV.0" vType="RV" speedFactor="1.00" vaporized=""/>
    <tripinfo id="OD325_NV.0" depart="26.00" departLane="right3E3_0" departPos="5.10" departSpeed="10.00" departDelay="0.51" arrival="120.00" arrivalLane="D4top3_1" arrivalPos="286.40" arrivalSpeed="13.57" duration="94.00" routeLength="1176.73" waitingTime="0.00" waitingCount="0" stopTime="0.00" timeLoss="8.03" rerouteNo="0" devices="tripinfo_OD325_NV.0" vType="NV" speedFactor="1.00" vaporized=""/>
    <tripinfo id="OD321_RV.0" depart="34.00" departLane="bottom0A0_0" departPos="5.10" departSpeed="10.00" departDelay="0.29" arrival="123.00" arrivalLane="A0left0_2" arrivalPos="286.40" arrivalSpeed="12.39" duration="89.00" routeLength="592.21" waitingTime="36.00" waitingCount="1" stopTime="0.00" timeLoss="45.25" rerouteNo="0" devices="tripinfo_OD321_RV.0" vType="RV" speedFactor="1.00" vaporized=""/>
    <tripinfo id="OD187_NV.1" depart="43.00" departLane="top1B4_0" departPos="5.10" departSpeed="10.00" departDelay="0.06" arrival="126.00" arrivalLane="A4left4_1" arrivalPos="286.40" arrivalSpeed="12.63" duration="83.00" routeLength="876.73" waitingTime="8.00" waitingCount="1" stopTime="0.00" timeLoss="19.13" rerouteNo="0" devices="tripinfo_OD187_NV.1" vType="NV" speedFactor="1.00" vaporized=""/>
    <tripinfo id="OD374_NV.0" depart="56.00" departLane="bottom1B0_0" departPos="5.10" departSpeed="10.00" departDelay="0.61" arrival="126.00" arrivalLane="C0bottom2_0" arrivalPos="286.40" arrivalSpeed="13.68" duration="70.00" routeLength="858.56" waitingTime="0.00" waitingCount="0" stopTime="0.00" timeLoss="7.23" rerouteNo="0" devices="tripinfo_OD374_NV.0" vType="NV" speedFactor="1.00" vaporized=""/>
    <tripinfo id="OD353_NV.0" depart="10.00" departLane="top3D4_0" departPos="5.10" departSpeed="10.00" departDelay="0.22" arrival="128.00" arrivalLane="E4top4_2" arrivalPos="286.40" arrivalSpeed="12.76" duration="118.00" routeLength="889.52" waitingTime="38.00" waitingCount="1" stopTime="0.00" timeLoss="52.31" rerouteNo="0" devices="tripinfo_OD353_NV.0" vType="NV" speedFactor="1.00" vaporized=""/>
    <tripinfo id="OD201_NV.0" depart="44.00" departLane="bottom4E0_0" departPos="5.10" departSpeed="10.00" departDelay="0.45" arrival="130.00" arrivalLane="E1right1_0" arrivalPos="286.40" arrivalSpeed="12.96" duration="86.00" routeLength="876.73" waitingTime="9.00" waitingCount="1" stopTime="0.00" timeLoss="21.55" rerouteNo="0" devices="tripinfo_OD201_NV.0" vType="NV" speedFactor="1.00" vaporized=""/>
    <tripinfo id="OD287_RV.0" depart="59.00" departLane="top4E4_0" departPos="5.10" departSpeed="10.00" departDelay="1.65" arrival="130.00" arrivalLane="D4top3_0" arrivalPos="286.40" arrivalSpeed="13.29" duration="71.00" routeLength="858.56" waitingTime="0.00" waitingCount="0" stopTime="0.00" timeLoss="7.49" rerouteNo="0" devices="tripinfo_OD287_RV.0" vType="RV" speedFactor="1.00" vaporized=""/>
    <tripinfo id="OD49_RV.0" depart="60.00" departLane="right0E0_0" departPos="5.10" departSpeed="10.00" departDelay="0.59" arrival="132.00" arrivalLane="E1right1_0" arrivalPos="286.40" arrivalSpeed="13.10" duration="72.00" routeLength="858.56" waitingTime="0.00" waitingCount="0" stopTime="0.00" timeLoss="8.64" rerouteNo="0" devices="tripinfo_OD49_RV.0" vType="RV" speedFactor="1.00" vaporized=""/>
    <tripinfo id="OD251_NV.0" depart="61.00" departLane="left2A2_0" departPos="5.10" departSpeed="10.00" departDelay="0.14" arrival="132.00" arrivalLane="A1left1_0" arrivalPos="286.40" arrivalSpeed="12.50" duration="71.00" routeLength="858.56" waitingTime="0.00" waitingCount="0" stopTime="0.00" timeLoss="7.51" rerouteNo="0" devices="tripinfo_OD251_NV.0" vType="NV" speedFactor="1.00" vaporized=""/>
    <tripinfo id="OD34_NV.0" depart="10.00" departLane="top2C4_0" departPos="5.10" departSpeed="10.00" departDelay="0.93" arrival="134.00" arrivalLane="A4top0_0" arrivalPos="286.40" arrivalSpeed="12.60" duration="124.00" routeLength="1158.56" waitingTime="26.00" waitingCount="1" stopTime="0.00" timeLoss="38.91" rerouteNo="0" devices="tripinfo_OD34_NV.0" vType="NV" speedFactor="1.00" vaporized=""/>
    <tripinfo id="OD173_RV.0" depart="19.00" departLane="top1B4_0" departPos="5.10" departSpeed="10.00" departDelay="0.66" arrival="134.00" arrivalLane="D4top3_2" arrivalPos="286.40" arrivalSpeed="13.34" duration="115.00" routeLength="1189.52" waitingTime="15.00" waitingCount="1" stopTime="0.00" timeLoss="27.76" rerouteNo="0" devices="tripinfo_OD173_RV.0" vType="RV" speedFactor="1.00" vaporized=""/>
    <tripinfo id="OD260_NV.0" depart="21.00" departLane="left2A2_0" departPos="5.10" departSpeed="10.00" departDelay="0.21" arrival="134.00" arrivalLane="A3left3_2" arrivalPos="286.40" arrivalSpeed="13.04" duration="113.00" routeLength="889.52" waitingTime="34.00" waitingCount="2" stopTime="0.00" timeLoss="47.38" rerouteNo="0" devices="tripinfo_OD260_NV.0" vType="NV" speedFactor="1.00" vaporized=""/>
    <tripinfo id="OD357_RV.0" depart="29.00" departLane="top3D4_0" departPos="5.10" departSpeed="10.00" departDelay="0.61" arrival="134.00" arrivalLane="B4top1_0" arrivalPos="286.40" arrivalSpeed="12.51" duration="105.00" routeLength="1158.56" waitingTime="7.00" waitingCount="1" stopTime="0.00" timeLoss="19.37" rerouteNo="0" devices="tripinfo_OD357_RV.0" vType="RV" speedFactor="1.00" vaporized=""/>
    <tripinfo id="OD173_RV.1" depart="22.00" departLane="top1B4_0" departPos="5.10" departSpeed="10.00" departDelay="2.67" arrival="136.00" arrivalLane="D4top3_2" arrivalPos="286.40" arrivalSpeed="12.87" duration="114.00" routeLength="1189.52" waitingTime="10.00" waitingCount="1" stopTime="0.00" timeLoss="26.64" rerouteNo="0" devices="tripinfo_OD173_RV.1" vType="RV" speedFactor="1.00" vaporized=""/>
    <tripinfo id="OD122_RV.0" depart="21.00" departLane="right1E1_0" departPos="5.10" departSpeed="10.00" departDelay="0.10" arrival="136.00" arrivalLane="E3right3_0" arrivalPos="286.40" arrivalSpeed="13.20" duration="115.00" routeLength="1158.56" waitingTime="15.00" waitingCount="1" stopTime="0.00" timeLoss="30.14" rerouteNo="0" devices="tripinfo_OD122_RV.0" vType="RV" speedFactor="1.00" vaporized=""/>
    <tripinfo id="OD114_NV.0" depart="38.00" departLane="right1E1_0" departPos="5.10" departSpeed="10.00" departDelay="0.91" arrival="139.00" arrivalLane="E0right0_2" arrivalPos="286.40" arrivalSpeed="12.86" duration="101.00" routeLength="889.52" waitingTime="20.00" waitingCount="2" stopTime="0.00" timeLoss="35.23" rerouteNo="0" devices="tripinfo_OD114_NV.0" vType="NV" speedFactor="1.00" vaporized=""/>
    <tripinfo id="OD357_RV.1" depart="44.00" departLane="top3D4_0" departPos="5.10" departSpeed="10.00" departDelay="0.66" arrival="139.00" arrivalLane="B4top1_0" arrivalPos="286.40" arrivalSpeed="13.04" duration="95.00" routeLength="1158.56" waitingTime="0.00" waitingCount="0" stopTime="0.00" timeLoss="9.41" rerouteNo="0" devices="tripinfo_OD357_RV.1" vType="RV" speedFactor="1.00" vaporized=""/>
    <tripinfo id="OD121_NV.0" depart="70.00" departLane="right1E1_0" departPos="5.10" departSpeed="10.00" departDelay="0.64" arrival="141.00" arrivalLane="E2right2_0" arrivalPos="286.40" arrivalSpeed="12.42" duration="71.00" routeLength="858.56" waitingTime="0.00" waitingCount="0" stopTime="0.00" timeLoss="8.29" rerouteNo="0" devices="tripinfo_OD121_NV.0" vType="NV" speedFactor="1.00" vaporized=""/>
    <tripinfo id="OD215_NV.0" depart="71.00" departLane="bottom2C0_0" departPos="5.10" departSpeed="10.00" departDelay="0.90" arrival="142.00" arrivalLane="D0bottom3_0" arrivalPos="286.40" arrivalSpeed="13.66" duration="71.00" routeLength="858.56" waitingTime="0.00" waitingCount="0" stopTime="0.00" timeLoss="6.91" rerouteNo="0" devices="tripinfo_OD215_NV.0" vType="NV" speedFactor="1.00" vaporized=""/>
    <tripinfo id="OD49_RV.1" depart="71.00" departLane="right0E0_0" departPos="5.10" departSpeed="10.00" departDelay="0.74" arrival="142.00" arrivalLane="E1right1_0" arrivalPos="286.40" arrivalSpeed="12.67" duration="71.00" routeLength="858.56" waitingTime="0.00" waitingCount="0" stopTime="0.00" timeLoss="7.76" rerouteNo="0" devices="tripinfo_OD49_RV.1" vType="RV" speedFactor="1.00" vaporized=""/>
    <tripinfo id="OD307_NV.2" depart="71.00" departLane="bottom0A0_0" departPos="5.10" departSpeed="10.00" departDelay="0.19" arrival="142.00" arrivalLane="B0bottom1_0" arrivalPos="286.40" arrivalSpeed="13.67" duration="71.00" routeLength="858.56" waitingTime="0.00" waitingCount="0" stopTime="0.00" timeLoss="7.62" rerouteNo="0" devices="tripinfo_OD307_NV.2" vType="NV" speedFactor="1.00" vaporized=""/>
    <tripinfo id="OD162_NV.1" depart="33.00" departLane="right2E2_0" departPos="5.10" departSpeed="10.00" departDelay="1.09" arrival="143.00" arrivalLane="E4top4_1" arrivalPos="286.40" arrivalSpeed="13.28" duration="110.00" routeLength="1176.73" waitingTime="10.00" waitingCount="1" stopTime="0.00" timeLoss="23.86" rerouteNo="0" devices="tripinfo_OD162_NV.1" vType="NV" speedFactor="1.00" vaporized=""/>
    <tripinfo id="OD137_RV.0" depart="13.00" departLane="top0A4_0" departPos="5.10" departSpeed="10.00" departDelay="1.18" arrival="146.00" arrivalLane="A1left1_0" arrivalPos="286.40" arrivalSpeed="12.98" duration="133.00" routeLength="1476.73" waitingTime="5.00" waitingCount="1" stopTime="0.00" timeLoss="25.92" rerouteNo="0" devices="tripinfo_OD137_RV.0" vType="RV" speedFactor="1.00" vaporized=""/>
    <tripinfo id="OD215_NV.1" depart="76.00" departLane="bottom2C0_0" departPos="5.10" departSpeed="10.00" departDelay="0.26" arrival="147.00" arrivalLane="D0bottom3_0" arrivalPos="286.40" arrivalSpeed="13.69" duration="71.00" routeLength="858.56" waitingTime="0.00" waitingCount="0" stopTime="0.00" timeLoss="6.72" rerouteNo="0" devices="tripinfo_OD215_NV.1" vType="NV" speedFactor="1.00" vaporized=""/>
    <tripinfo id="OD43_RV.0" depart="38.00" departLane="right0E0_0" departPos="5.10" departSpeed="10.00" departDelay="0.89" arrival="148.00" arrivalLane="D0bottom3_2" arrivalPos="286.40" arrivalSpeed="13.51" duration="110.00" routeLength="892.21" waitingTime="33.00" waitingCount="2" stopTime="0.00" timeLoss="44.54" rerouteNo="0" devices="tripinfo_OD43_RV.0" vType="RV" speedFactor="1.00" vaporized=""/>
    <tripinfo id="OD367_RV.0" depart="26.00" departLane="bottom1B0_0" departPos="5.10" departSpeed="10.00" departDelay="0.50" arrival="150.00" arrivalLane="D0bottom3_0" arrivalPos="286.40" arrivalSpeed="12.67" duration="124.00" routeLength="1158.56" waitingTime="25.00" waitingCount="1" stopTime="0.00" timeLoss="38.73" rerouteNo="0" devices="tripinfo_OD367_RV.0" vType="RV" speedFactor="1.00" vaporized=""/>
    <tripinfo id="OD43_NV.0" depart="56.00" departLane="right0E0_0" departPos="5.10" departSpeed="10.00" departDelay="0.32" arrival="150.00" arrivalLane="D0bottom3_2" arrivalPos="286.40" arrivalSpeed="12.60" duration="94.00" routeLength="892.21" waitingTime="14.00" waitingCount="2" stopTime="0.00" timeLoss="28.58" rerouteNo="0" devices="tripinfo_OD43_NV.0" vType="NV" speedFactor="1.00" vaporized=""/>
    <tripinfo id="OD293_RV.0" depart="27.00" departLane="top4E4_0" departPos="5.10" departSpeed="10.00" departDelay="0.58" arrival="151.00" arrivalLane="E2right2_2" arrivalPos="286.40" arrivalSpeed="12.93" duration="124.00" routeLength="1192.21" waitingTime="16.00" waitingCount="3" stopTime="0.00" timeLoss="37.01" rerouteNo="0" devices="tripinfo_OD293_RV.0" vType="RV" speedFactor="1.00" vaporized=""/>
    <tripinfo id="OD374_RV.0" depart="80.00" departLane="bottom1B0_0" departPos="5.10" departSpeed="10.00" departDelay="0.93" arrival="151.00" arrivalLane="C0bottom2_0" arrivalPos="286.40" arrivalSpeed="13.30" duration="71.00" routeLength="858.56" waitingTime="0.00" waitingCount="0" stopTime="0.00" timeLoss="7.19" rerouteNo="0" devices="tripinfo_OD374_RV.0" vType="RV" speedFactor="1.00" vaporized=""/>
    <tripinfo id="OD73_NV.0" depart="17.00" departLane="left1A1_0" departPos="5.10" departSpeed="10.00" departDelay="0.70" arrival="152.00" arrivalLane="A4left4_2" arrivalPos="286.40" arrivalSpeed="13.81" duration="135.00" routeLength="1489.52" waitingTime="10.00" waitingCount="2" stopTime="0.00" timeLoss="26.39" rerouteNo="0" devices="tripinfo_OD73_NV.0" vType="NV" speedFactor="1.00" vaporized=""/>
    <tripinfo id="OD123_RV.0" depart="54.00" departLane="right1E1_0" departPos="5.10" departSpeed="10.00" departDelay="0.33" arrival="152.00" arrivalLane="E0bottom4_1" arrivalPos="286.40" arrivalSpeed="12.42" duration="98.00" routeLength="892.21" waitingTime="22.00" waitingCount="1" stopTime="0.00" timeLoss="32.70" rerouteNo="0" devices="tripinfo_OD123_RV.0" vType="RV" speedFactor="1.00" vaporized=""/>
    <tripinfo id="OD198_NV.0" depart="14.00" departLane="bottom4E0_0" departPos="5.10" departSpeed="10.00" departDelay="1.02" arrival="153.00" arrivalLane="E2right2_0" arrivalPos="286.40" arrivalSpeed="13.80" duration="139.00" routeLength="1176.73" waitingTime="35.00" waitingCount="1" stopTime="0.00" timeLoss="52.56" rerouteNo="0" devices="tripinfo_OD198_NV.0" vType="NV" speedFactor="1.00" vaporized=""/>
    <tripinfo id="OD185_NV.0" depart="2.00" departLane="top1B4_0" departPos="5.10" departSpeed="10.00" departDelay="0.70" arrival="154.00" arrivalLane="B4top1_1" arrivalPos="286.40" arrivalSpeed="13.23" duration="152.00" routeLength="1737.70" waitingTime="4.00" waitingCount="1" stopTime="0.00" timeLoss="24.46" rerouteNo="0" devices="tripinfo_OD185_NV.0" vType="NV" speedFactor="1.00" vaporized=""/>
    <tripinfo id="OD290_RV.0" depart="47.00" departLane="top4E4_0" departPos="5.10" departSpeed="10.00" departDelay="0.02" arrival="154.00" arrivalLane="E4right4_2" arrivalPos="286.40" arrivalSpeed="13.19" duration="107.00" routeLength="592.21" waitingTime="56.00" waitingCount="1" stopTime="0.00" timeLoss="63.39" rerouteNo="0" devices="tripinfo_OD290_RV.0" vType="RV" speedFactor="1.00" vaporized=""/>
    <tripinfo id="OD263_RV.0" depart="52.00" departLane="left2A2_0" departPos="5.10" departSpeed="10.00" departDelay="0.56" arrival="154.00" arrivalLane="A4left4_2" arrivalPos="286.40" arrivalSpeed="12.68" duration="102.00" routeLength="1189.52" waitingTime="1.00" waitingCount="1" stopTime="0.00" timeLoss="14.58" rerouteNo="0" devices="tripinfo_OD263_RV.0" vType="RV" speedFactor="1.00" vaporized=""/>
    <tripinfo id="OD33_NV.0" depart="84.00" departLane="top2C4_0" departPos="5.10" departSpeed="10.00" departDelay="0.44" arrival="154.00" arrivalLane="B4top1_0" arrivalPos="286.40" arrivalSpeed="13.69" duration="70.00" routeLength="858.56" waitingTime="0.00" waitingCount="0" stopTime="0.00" timeLoss="6.24" rerouteNo="0" devices="tripinfo_OD33_NV.0" vType="NV" speedFactor="1.00" vaporized=""/>
    <tripinfo id="OD263_NV.1" depart="55.00" departLane="left2A2_0" departPos="5.10" departSpeed="10.00" departDelay="0.34" arrival="156.00" arrivalLane="A4left4_2" arrivalPos="286.40" arrivalSpeed="12.67" duration="101.00" routeLength="1189.52" waitingTime="0.00" waitingCount="0" stopTime="0.00" timeLoss="14.42" rerouteNo="0" devices="tripinfo_OD263_NV.1" vType="NV" speedFactor="1.00" vaporized=""/>
    <tripinfo id="OD290_RV.1" depart="83.00" departLane="top4E4_0" departPos="5.10" departSpeed="10.00" departDelay="0.21" arrival="156.00" arrivalLane="E4right4_2" arrivalPos="286.40" arrivalSpeed="13.06" duration="73.00" routeLength="592.21" waitingTime="20.00" waitingCount="1" stopTime="0.00" timeLoss="29.58" rerouteNo="0" devices="tripinfo_OD290_RV.1" vType="RV" speedFactor="1.00" vaporized=""/>
    <tripinfo id="OD250_RV.0" depart="15.00" departLane="left2A2_0" departPos="5.10" departSpeed="10.00" departDelay="2.20" arrival="157.00" arrivalLane="B0bottom1_1" arrivalPos="286.40" arrivalSpeed="13.17" duration="142.00" routeLength="1476.73" waitingTime="15.00" waitingCount="2" stopTime="0.00" timeLoss="33.85" rerouteNo="0" devices="tripinfo_OD250_RV.0" vType="RV" speedFactor="1.00" vaporized=""/>
    <tripinfo id="OD245_NV.0" depart="2.00" departLane="left3A3_0" departPos="5.10" departSpeed="10.00" departDelay="0.05" arrival="158.00" arrivalLane="A0left0_0" arrivalPos="286.40" arrivalSpeed="12.65" duration="156.00" routeLength="1458.56" waitingTime="28.00" waitingCount="2" stopTime="0.00" timeLoss="49.02" rerouteNo="0" devices="tripinfo_OD245_NV.0" vType="NV" speedFactor="1.00" vaporized=""/>
    <tripinfo id="OD33_NV.1" depart="87.00" departLane="top2C4_0" departPos="5.10" departSpeed="10.00" departDelay="0.93" arrival="158.00" arrivalLane="B4top1_0" arrivalPos="286.40" arrivalSpeed="12.73" duration="71.00" routeLength="858.56" waitingTime="0.00" waitingCount="0" stopTime="0.00" timeLoss="7.32" rerouteNo="0" devices="tripinfo_OD33_NV.1" vType="NV" speedFactor="1.00" vaporized=""/>
    <tripinfo id="OD368_NV.0" depart="4.00" departLane="bottom1B0_0" departPos="5.10" departSpeed="10.00" departDelay="1.04" arrival="159.00" arrivalLane="A2left2_2" arrivalPos="286.40" arrivalSpeed="13.26" duration="155.00" routeLength="1471.35" waitingTime="21.00" waitingCount="3" stopTime="0.00" timeLoss="46.97" rerouteNo="0" devices="tripinfo_OD368_NV.0" vType="NV" speedFactor="1.00" vaporized=""/>
    <tripinfo id="OD34_RV.0" depart="55.00" departLane="top2C4_0" departPos="5.10" departSpeed="10.00" departDelay="1.38" arrival="159.00" arrivalLane="A4top0_0" arrivalPos="286.40" arrivalSpeed="13.46" duration="104.00" routeLength="1158.56" waitingTime="6.00" waitingCount="1" stopTime="0.00" timeLoss="18.62" rerouteNo="0" devices="tripinfo_OD34_RV.0" vType="RV" speedFactor="1.00" vaporized=""/>
    <tripinfo id="OD308_RV.0" depart="3.00" departLane="bottom0A0_0" departPos="5.10" departSpeed="10.00" departDelay="0.48" arrival="160.00" arrivalLane="A1left1_2" arrivalPos="286.40" arrivalSpeed="12.95" duration="157.00" routeLength="892.21" waitingTime="78.00" waitingCount="2" stopTime="0.00" timeLoss="91.58" rerouteNo="0" devices="tripinfo_OD308_RV.0" vType="RV" speedFactor="1.00" vaporized=""/>
    <tripinfo id="OD158_NV.0" depart="4.00" departLane="right2E2_0" departPos="5.10" departSpeed="10.00" departDelay="0.74" arrival="160.00" arrivalLane="D0bottom3_1" arrivalPos="286.40" arrivalSpeed="13.15" duration="156.00" routeLength="1492.21" waitingTime="27.00" waitingCount="3" stopTime="0.00" timeLoss="48.10" rerouteNo="0" devices="tripinfo_OD158_NV.0" vType="NV" speedFactor="1.00" vaporized=""/>
    <tripinfo id="OD70_RV.0" depart="33.00" departLane="left1A1_0" departPos="5.10" departSpeed="10.00" departDelay="0.71" arrival="160.00" arrivalLane="A3left3_2" arrivalPos="286.40" arrivalSpeed="12.78" duration="127.00" routeLength="1189.52" waitingTime="21.00" waitingCount="2" stopTime="0.00" timeLoss="39.85" rerouteNo="0" devices="tripinfo_OD70_RV.0" vType="RV" speedFactor="1.00" vaporized=""/>