<?xml version="1.0" encoding="UTF-8"?>

<!-- generated on 2025-02-25 18:19:02 by Eclipse SUMO sumo Version 1.20.0
<configuration xmlns:xsi="http://www.w3.org/2001/XMLSchema-instance" xsi:noNamespaceSchemaLocation="http://sumo.dlr.de/xsd/sumoConfiguration.xsd">

    <input>
        <net-file value="./envs/5x5/SV_pr/5x5.net.xml"/>
        <route-files value="./envs/5x5/SV_pr/Demand_90.rou.xml"/>
    </input>

    <output>
        <tripinfo-output value="./envs/5x5/SV_pr/tripinfo_MP_90.xml"/>
    </output>

    <time>
        <begin value="0"/>
    </time>

    <processing>
        <time-to-teleport value="-1"/>
        <waiting-time-memory value="1800"/>
    </processing>

    <report>
        <no-step-log value="true"/>
    </report>

    <traci_server>
        <remote-port value="57559"/>
    </traci_server>

</configuration>
-->

<tripinfos xmlns:xsi="http://www.w3.org/2001/XMLSchema-instance" xsi:noNamespaceSchemaLocation="http://sumo.dlr.de/xsd/tripinfo_file.xsd">
    <tripinfo id="OD186_RV.0" depart="10.00" departLane="top1B4_0" departPos="5.10" departSpeed="10.00" departDelay="0.48" arrival="81.00" arrivalLane="A4top0_0" arrivalPos="286.40" arrivalSpeed="12.61" duration="71.00" routeLength="858.56" waitingTime="0.00" waitingCount="0" stopTime="0.00" timeLoss="6.61" rerouteNo="0" devices="tripinfo_OD186_RV.0" vType="RV" speedFactor="1.00" vaporized=""/>
    <tripinfo id="OD360_NV.0" depart="17.00" departLane="top3D4_0" departPos="5.10" departSpeed="10.00" departDelay="0.66" arrival="88.00" arrivalLane="C4top2_0" arrivalPos="286.40" arrivalSpeed="13.47" duration="71.00" routeLength="858.56" waitingTime="0.00" waitingCount="0" stopTime="0.00" timeLoss="7.59" rerouteNo="0" devices="tripinfo_OD360_NV.0" vType="NV" speedFactor="1.00" vaporized=""/>
    <tripinfo id="OD235_RV.0" depart="21.00" departLane="left3A3_0" departPos="5.10" departSpeed="10.00" departDelay="0.21" arrival="91.00" arrivalLane="A2left2_0" arrivalPos="286.40" arrivalSpeed="13.44" duration="70.00" routeLength="858.56" waitingTime="0.00" waitingCount="0" stopTime="0.00" timeLoss="6.62" rerouteNo="0" devices="tripinfo_OD235_RV.0" vType="RV" speedFactor="1.00" vaporized=""/>
    <tripinfo id="OD2_RV.0" depart="8.00" departLane="left0A0_0" departPos="5.10" departSpeed="10.00" departDelay="0.36" arrival="96.00" arrivalLane="B0bottom1_0" arrivalPos="286.40" arrivalSpeed="13.62" duration="88.00" routeLength="876.73" waitingTime="12.00" waitingCount="1" stopTime="0.00" timeLoss="23.91" rerouteNo="0" devices="tripinfo_OD2_RV.0" vType="RV" speedFactor="1.00" vaporized=""/>
    <tripinfo id="OD108_RV.0" depart="26.00" departLane="left4A4_0" departPos="5.10" departSpeed="10.00" departDelay="0.88" arrival="97.00" arrivalLane="A3left3_0" arrivalPos="286.40" arrivalSpeed="13.62" duration="71.00" routeLength="858.56" waitingTime="0.00" waitingCount="0" stopTime="0.00" timeLoss="7.70" rerouteNo="0" devices="tripinfo_OD108_RV.0" vType="RV" speedFactor="1.00" vaporized=""/>
    <tripinfo id="OD88_RV.0" depart="27.00" departLane="bottom3D0_0" departPos="5.10" departSpeed="10.00" departDelay="0.57" arrival="98.00" arrivalLane="C0bottom2_2" arrivalPos="286.40" arrivalSpeed="13.24" duration="71.00" routeLength="889.52" waitingTime="0.00" waitingCount="0" stopTime="0.00" timeLoss="4.64" rerouteNo="0" devices="tripinfo_OD88_RV.0" vType="RV" speedFactor="1.00" vaporized=""/>
    <tripinfo id="OD360_RV.0" depart="28.00" departLane="top3D4_0" departPos="5.10" departSpeed="10.00" departDelay="0.47" arrival="98.00" arrivalLane="C4top2_0" arrivalPos="286.40" arrivalSpeed="13.69" duration="70.00" routeLength="858.56" waitingTime="0.00" waitingCount="0" stopTime="0.00" timeLoss="6.67" rerouteNo="0" devices="tripinfo_OD360_RV.0" vType="RV" speedFactor="1.00" vaporized=""/>
    <tripinfo id="OD334_RV.0" depart="29.00" departLane="right3E3_0" departPos="5.10" departSpeed="10.00" departDelay="0.78" arrival="98.00" arrivalLane="E4top4_1" arrivalPos="286.40" arrivalSpeed="13.75" duration="69.00" routeLength="876.73" waitingTime="0.00" waitingCount="0" stopTime="0.00" timeLoss="5.37" rerouteNo="0" devices="tripinfo_OD334_RV.0" vType="RV" speedFactor="1.00" vaporized=""/>
    <tripinfo id="OD187_RV.0" depart="16.00" departLane="top1B4_0" departPos="5.10" departSpeed="10.00" departDelay="0.80" arrival="101.00" arrivalLane="A4left4_1" arrivalPos="286.40" arrivalSpeed="13.76" duration="85.00" routeLength="876.73" waitingTime="9.00" waitingCount="1" stopTime="0.00" timeLoss="20.98" rerouteNo="0" devices="tripinfo_OD187_RV.0" vType="RV" speedFactor="1.00" vaporized=""/>
    <tripinfo id="OD196_RV.0" depart="17.00" departLane="bottom4E0_0" departPos="5.10" departSpeed="10.00" departDelay="0.06" arrival="101.00" arrivalLane="D0bottom3_2" arrivalPos="286.40" arrivalSpeed="12.58" duration="84.00" routeLength="889.52" waitingTime="8.00" waitingCount="1" stopTime="0.00" timeLoss="18.40" rerouteNo="0" devices="tripinfo_OD196_RV.0" vType="RV" speedFactor="1.00" vaporized=""/>
    <tripinfo id="OD294_RV.0" depart="26.00" departLane="top4E4_0" departPos="5.10" departSpeed="10.00" departDelay="0.51" arrival="102.00" arrivalLane="E3right3_2" arrivalPos="286.40" arrivalSpeed="13.39" duration="76.00" routeLength="892.21" waitingTime="0.00" waitingCount="0" stopTime="0.00" timeLoss="10.74" rerouteNo="0" devices="tripinfo_OD294_RV.0" vType="RV" speedFactor="1.00" vaporized=""/>
    <tripinfo id="OD232_RV.0" depart="12.00" departLane="left3A3_0" departPos="5.10" departSpeed="10.00" departDelay="1.82" arrival="105.00" arrivalLane="A1left1_0" arrivalPos="286.40" arrivalSpeed="13.33" duration="93.00" routeLength="1158.56" waitingTime="0.00" waitingCount="0" stopTime="0.00" timeLoss="8.44" rerouteNo="0" devices="tripinfo_OD232_RV.0" vType="RV" speedFactor="1.00" vaporized=""/>
    <tripinfo id="OD275_RV.0" depart="10.00" departLane="right4E4_0" departPos="5.10" departSpeed="10.00" departDelay="0.44" arrival="108.00" arrivalLane="E3right3_2" arrivalPos="286.40" arrivalSpeed="12.46" duration="98.00" routeLength="889.52" waitingTime="24.00" waitingCount="1" stopTime="0.00" timeLoss="32.88" rerouteNo="0" devices="tripinfo_OD275_RV.0" vType="RV" speedFactor="1.00" vaporized=""/>
    <tripinfo id="OD362_NV.0" depart="11.00" departLane="bottom1B0_0" departPos="5.10" departSpeed="10.00" departDelay="0.74" arrival="111.00" arrivalLane="A0bottom0_2" arrivalPos="286.40" arrivalSpeed="12.67" duration="100.00" routeLength="889.52" waitingTime="20.00" waitingCount="2" stopTime="0.00" timeLoss="34.47" rerouteNo="0" devices="tripinfo_OD362_NV.0" vType="NV" speedFactor="1.00" vaporized=""/>
    <tripinfo id="OD146_RV.0" depart="17.00" departLane="top0A4_0" departPos="5.10" departSpeed="10.00" departDelay="1.58" arrival="112.00" arrivalLane="A3left3_0" arrivalPos="286.40" arrivalSpeed="13.78" duration="95.00" routeLength="876.73" waitingTime="12.00" waitingCount="1" stopTime="0.00" timeLoss="30.23" rerouteNo="0" devices="tripinfo_OD146_RV.0" vType="RV" speedFactor="1.00" vaporized=""/>
    <tripinfo id="OD157_RV.0" depart="19.00" departLane="right2E2_0" departPos="5.10" departSpeed="10.00" departDelay="0.66" arrival="113.00" arrivalLane="E4right4_0" arrivalPos="286.40" arrivalSpeed="13.23" duration="94.00" routeLength="1158.56" waitingTime="0.00" waitingCount="0" stopTime="0.00" timeLoss="8.85" rerouteNo="0" devices="tripinfo_OD157_RV.0" vType="RV" speedFactor="1.00" vaporized=""/>
    <tripinfo id="OD362_RV.0" depart="22.00" departLane="bottom1B0_0" departPos="5.10" departSpeed="10.00" departDelay="0.26" arrival="113.00" arrivalLane="A0bottom0_2" arrivalPos="286.40" arrivalSpeed="13.59" duration="91.00" routeLength="889.52" waitingTime="12.00" waitingCount="2" stopTime="0.00" timeLoss="25.35" rerouteNo="0" devices="tripinfo_OD362_RV.0" vType="RV" speedFactor="1.00" vaporized=""/>
    <tripinfo id="OD262_RV.0" depart="3.00" departLane="left2A2_0" departPos="5.10" departSpeed="10.00" departDelay="0.51" arrival="114.00" arrivalLane="A4top0_1" arrivalPos="286.40" arrivalSpeed="13.16" duration="111.00" routeLength="1192.21" waitingTime="14.00" waitingCount="1" stopTime="0.00" timeLoss="23.82" rerouteNo="0" devices="tripinfo_OD262_RV.0" vType="RV" speedFactor="1.00" vaporized=""/>
    <tripinfo id="OD362_RV.1" depart="24.00" departLane="bottom1B0_0" departPos="5.10" departSpeed="10.00" departDelay="0.97" arrival="115.00" arrivalLane="A0bottom0_2" arrivalPos="286.40" arrivalSpeed="12.43" duration="91.00" routeLength="889.52" waitingTime="9.00" waitingCount="1" stopTime="0.00" timeLoss="25.41" rerouteNo="0" devices="tripinfo_OD362_RV.1" vType="RV" speedFactor="1.00" vaporized=""/>
    <tripinfo id="OD157_RV.1" depart="21.00" departLane="right2E2_0" departPos="5.10" departSpeed="10.00" departDelay="1.67" arrival="116.00" arrivalLane="E4right4_0" arrivalPos="286.40" arrivalSpeed="13.04" duration="95.00" routeLength="1158.56" waitingTime="0.00" waitingCount="0" stopTime="0.00" timeLoss="9.97" rerouteNo="0" devices="tripinfo_OD157_RV.1" vType="RV" speedFactor="1.00" vaporized=""/>
    <tripinfo id="OD146_RV.1" depart="33.00" departLane="top0A4_0" departPos="5.10" departSpeed="10.00" departDelay="1.09" arrival="116.00" arrivalLane="A3left3_0" arrivalPos="286.40" arrivalSpeed="13.11" duration="83.00" routeLength="876.73" waitingTime="6.00" waitingCount="1" stopTime="0.00" timeLoss="19.40" rerouteNo="0" devices="tripinfo_OD146_RV.1" vType="RV" speedFactor="1.00" vaporized=""/>
    <tripinfo id="OD160_RV.0" depart="47.00" departLane="right2E2_0" departPos="5.10" departSpeed="10.00" departDelay="0.58" arrival="117.00" arrivalLane="E3right3_0" arrivalPos="286.40" arrivalSpeed="13.09" duration="70.00" routeLength="858.56" waitingTime="0.00" waitingCount="0" stopTime="0.00" timeLoss="6.53" rerouteNo="0" devices="tripinfo_OD160_RV.0" vType="RV" speedFactor="1.00" vaporized=""/>
    <tripinfo id="OD161_RV.0" depart="10.00" departLane="right2E2_0" departPos="5.10" departSpeed="10.00" departDelay="0.60" arrival="122.00" arrivalLane="E0bottom4_1" arrivalPos="286.40" arrivalSpeed="12.62" duration="112.00" routeLength="1192.21" waitingTime="14.00" waitingCount="1" stopTime="0.00" timeLoss="24.64" rerouteNo="0" devices="tripinfo_OD161_RV.0" vType="RV" speedFactor="1.00" vaporized=""/>
    <tripinfo id="OD374_RV.0" depart="52.00" departLane="bottom1B0_0" departPos="5.10" departSpeed="10.00" departDelay="0.27" arrival="122.00" arrivalLane="C0bottom2_0" arrivalPos="286.40" arrivalSpeed="13.39" duration="70.00" routeLength="858.56" waitingTime="0.00" waitingCount="0" stopTime="0.00" timeLoss="6.36" rerouteNo="0" devices="tripinfo_OD374_RV.0" vType="RV" speedFactor="1.00" vaporized=""/>
    <tripinfo id="OD290_RV.0" depart="20.00" departLane="top4E4_0" departPos="5.10" departSpeed="10.00" departDelay="0.96" arrival="124.00" arrivalLane="E4right4_2" arrivalPos="286.40" arrivalSpeed="12.92" duration="104.00" routeLength="592.21" waitingTime="53.00" waitingCount="1" stopTime="0.00" timeLoss="60.32" rerouteNo="0" devices="tripinfo_OD290_RV.0" vType="RV" speedFactor="1.00" vaporized=""/>
    <tripinfo id="OD290_RV.1" depart="78.00" departLane="top4E4_0" departPos="5.10" departSpeed="10.00" departDelay="0.12" arrival="126.00" arrivalLane="E4right4_2" arrivalPos="286.40" arrivalSpeed="12.50" duration="48.00" routeLength="592.21" waitingTime="0.00" waitingCount="0" stopTime="0.00" timeLoss="3.94" rerouteNo="0" devices="tripinfo_OD290_RV.1" vType="RV" speedFactor="1.00" vaporized=""/>
    <tripinfo id="OD110_RV.0" depart="70.00" departLane="left4A4_0" departPos="5.10" departSpeed="10.00" departDelay="0.64" arrival="127.00" arrivalLane="A4top0_2" arrivalPos="286.40" arrivalSpeed="13.72" duration="57.00" routeLength="592.21" waitingTime="4.00" waitingCount="1" stopTime="0.00" timeLoss="13.02" rerouteNo="0" devices="tripinfo_OD110_RV.0" vType="RV" speedFactor="1.00" vaporized=""/>
    <tripinfo id="OD160_RV.1" depart="60.00" departLane="right2E2_0" departPos="5.10" departSpeed="10.00" departDelay="0.98" arrival="130.00" arrivalLane="E3right3_0" arrivalPos="286.40" arrivalSpeed="13.79" duration="70.00" routeLength="858.56" waitingTime="0.00" waitingCount="0" stopTime="0.00" timeLoss="6.54" rerouteNo="0" devices="tripinfo_OD160_RV.1" vType="RV" speedFactor="1.00" vaporized=""/>
    <tripinfo id="OD317_RV.0" depart="27.00" departLane="bottom0A0_0" departPos="5.10" departSpeed="10.00" departDelay="0.20" arrival="135.00" arrivalLane="C0bottom2_0" arrivalPos="286.40" arrivalSpeed="13.49" duration="108.00" routeLength="1158.56" waitingTime="10.00" waitingCount="1" stopTime="0.00" timeLoss="22.81" rerouteNo="0" devices="tripinfo_OD317_RV.0" vType="RV" speedFactor="1.00" vaporized=""/>
    <tripinfo id="OD212_RV.0" depart="23.00" departLane="bottom2C0_0" departPos="5.10" departSpeed="10.00" departDelay="0.67" arrival="137.00" arrivalLane="B0bottom1_2" arrivalPos="286.40" arrivalSpeed="13.18" duration="114.00" routeLength="889.52" waitingTime="39.00" waitingCount="1" stopTime="0.00" timeLoss="48.49" rerouteNo="0" devices="tripinfo_OD212_RV.0" vType="RV" speedFactor="1.00" vaporized=""/>
    <tripinfo id="OD58_RV.0" depart="47.00" departLane="left1A1_0" departPos="5.10" departSpeed="10.00" departDelay="0.76" arrival="137.00" arrivalLane="A0bottom0_1" arrivalPos="286.40" arrivalSpeed="13.23" duration="90.00" routeLength="876.73" waitingTime="15.00" waitingCount="1" stopTime="0.00" timeLoss="26.24" rerouteNo="0" devices="tripinfo_OD58_RV.0" vType="RV" speedFactor="1.00" vaporized=""/>
    <tripinfo id="OD359_RV.0" depart="4.00" departLane="top3D4_0" departPos="5.10" departSpeed="10.00" departDelay="0.18" arrival="138.00" arrivalLane="A4left4_1" arrivalPos="286.40" arrivalSpeed="13.47" duration="134.00" routeLength="1476.73" waitingTime="13.00" waitingCount="1" stopTime="0.00" timeLoss="26.97" rerouteNo="0" devices="tripinfo_OD359_RV.0" vType="RV" speedFactor="1.00" vaporized=""/>
    <tripinfo id="OD12_RV.0" depart="22.00" departLane="left0A0_0" departPos="5.10" departSpeed="10.00" departDelay="0.43" arrival="138.00" arrivalLane="C0bottom2_0" arrivalPos="286.40" arrivalSpeed="12.95" duration="116.00" routeLength="1176.73" waitingTime="9.00" waitingCount="2" stopTime="0.00" timeLoss="29.96" rerouteNo="0" devices="tripinfo_OD12_RV.0" vType="RV" speedFactor="1.00" vaporized=""/>
    <tripinfo id="OD161_NV.0" depart="20.00" departLane="right2E2_0" departPos="5.10" departSpeed="10.00" departDelay="1.39" arrival="140.00" arrivalLane="E0bottom4_1" arrivalPos="286.40" arrivalSpeed="12.85" duration="120.00" routeLength="1192.21" waitingTime="15.00" waitingCount="2" stopTime="0.00" timeLoss="33.08" rerouteNo="0" devices="tripinfo_OD161_NV.0" vType="NV" speedFactor="1.00" vaporized=""/>
    <tripinfo id="OD121_RV.0" depart="70.00" departLane="right1E1_0" departPos="5.10" departSpeed="10.00" departDelay="2.15" arrival="140.00" arrivalLane="E2right2_0" arrivalPos="286.40" arrivalSpeed="13.42" duration="70.00" routeLength="858.56" waitingTime="0.00" waitingCount="0" stopTime="0.00" timeLoss="6.66" rerouteNo="0" devices="tripinfo_OD121_RV.0" vType="RV" speedFactor="1.00" vaporized=""/>
    <tripinfo id="OD268_NV.0" depart="58.00" departLane="right4E4_0" departPos="5.10" departSpeed="10.00" departDelay="1.00" arrival="142.00" arrivalLane="D4top3_0" arrivalPos="286.40" arrivalSpeed="12.78" duration="84.00" routeLength="876.73" waitingTime="6.00" waitingCount="1" stopTime="0.00" timeLoss="19.60" rerouteNo="0" devices="tripinfo_OD268_NV.0" vType="NV" speedFactor="1.00" vaporized=""/>
    <tripinfo id="OD307_RV.0" depart="73.00" departLane="bottom0A0_0" departPos="5.10" departSpeed="10.00" departDelay="0.52" arrival="143.00" arrivalLane="B0bottom1_0" arrivalPos="286.40" arrivalSpeed="13.52" duration="70.00" routeLength="858.56" waitingTime="0.00" waitingCount="0" stopTime="0.00" timeLoss="6.48" rerouteNo="0" devices="tripinfo_OD307_RV.0" vType="RV" speedFactor="1.00" vaporized=""/>
    <tripinfo id="OD2_RV.1" depart="56.00" departLane="left0A0_0" departPos="5.10" departSpeed="10.00" departDelay="0.54" arrival="147.00" arrivalLane="B0bottom1_0" arrivalPos="286.40" arrivalSpeed="13.30" duration="91.00" routeLength="876.73" waitingTime="16.00" waitingCount="1" stopTime="0.00" timeLoss="27.19" rerouteNo="0" devices="tripinfo_OD2_RV.1" vType="RV" speedFactor="1.00" vaporized=""/>
    <tripinfo id="OD325_RV.0" depart="16.00" departLane="right3E3_0" departPos="5.10" departSpeed="10.00" departDelay="0.56" arrival="148.00" arrivalLane="D4top3_0" arrivalPos="286.40" arrivalSpeed="12.89" duration="132.00" routeLength="1155.87" waitingTime="32.00" waitingCount="1" stopTime="0.00" timeLoss="46.84" rerouteNo="0" devices="tripinfo_OD325_RV.0" vType="RV" speedFactor="1.00" vaporized=""/>
    <tripinfo id="OD149_NV.0" depart="101.00" departLane="top0A4_0" departPos="5.10" departSpeed="10.00" departDelay="0.14" arrival="148.00" arrivalLane="A4left4_0" arrivalPos="286.40" arrivalSpeed="12.51" duration="47.00" routeLength="576.73" waitingTime="0.00" waitingCount="0" stopTime="0.00" timeLoss="4.24" rerouteNo="0" devices="tripinfo_OD149_NV.0" vType="NV" speedFactor="1.00" vaporized=""/>
    <tripinfo id="OD280_RV.0" depart="5.00" departLane="right4E4_0" departPos="5.10" departSpeed="10.00" departDelay="0.20" arrival="149.00" arrivalLane="B4top1_0" arrivalPos="286.40" arrivalSpeed="13.86" duration="144.00" routeLength="1476.73" waitingTime="15.00" waitingCount="2" stopTime="0.00" timeLoss="35.90" rerouteNo="0" devices="tripinfo_OD280_RV.0" vType="RV" speedFactor="1.00" vaporized=""/>
    <tripinfo id="OD186_RV.1" depart="79.00" departLane="top1B4_0" departPos="5.10" departSpeed="10.00" departDelay="1.58" arrival="150.00" arrivalLane="A4top0_0" arrivalPos="286.40" arrivalSpeed="12.41" duration="71.00" routeLength="858.56" waitingTime="0.00" waitingCount="0" stopTime="0.00" timeLoss="7.88" rerouteNo="0" devices="tripinfo_OD186_RV.1" vType="RV" speedFactor="1.00" vaporized=""/>
    <tripinfo id="OD335_RV.0" depart="31.00" departLane="right3E3_0" departPos="5.10" departSpeed="10.00" departDelay="1.52" arrival="151.00" arrivalLane="E1right1_2" arrivalPos="286.40" arrivalSpeed="12.83" duration="120.00" routeLength="1189.52" waitingTime="15.00" waitingCount="1" stopTime="0.00" timeLoss="33.01" rerouteNo="0" devices="tripinfo_OD335_RV.0" vType="RV" speedFactor="1.00" vaporized=""/>
    <tripinfo id="OD72_RV.0" depart="3.00" departLane="left1A1_0" departPos="5.10" departSpeed="10.00" departDelay="0.99" arrival="153.00" arrivalLane="A4top0_1" arrivalPos="286.40" arrivalSpeed="13.66" duration="150.00" routeLength="1492.21" waitingTime="22.00" waitingCount="3" stopTime="0.00" timeLoss="41.33" rerouteNo="0" devices="tripinfo_OD72_RV.0" vType="RV" speedFactor="1.00" vaporized=""/>
    <tripinfo id="OD152_RV.0" depart="17.00" departLane="right2E2_0" departPos="5.10" departSpeed="10.00" departDelay="0.59" arrival="153.00" arrivalLane="E0right0_2" arrivalPos="286.40" arrivalSpeed="13.80" duration="136.00" routeLength="1189.52" waitingTime="34.00" waitingCount="2" stopTime="0.00" timeLoss="48.81" rerouteNo="0" devices="tripinfo_OD152_RV.0" vType="RV" speedFactor="1.00" vaporized=""/>
    <tripinfo id="OD335_RV.1" depart="32.00" departLane="right3E3_0" departPos="5.10" departSpeed="10.00" departDelay="0.58" arrival="153.00" arrivalLane="E1right1_2" arrivalPos="286.40" arrivalSpeed="13.34" duration="121.00" routeLength="1189.52" waitingTime="14.00" waitingCount="1" stopTime="0.00" timeLoss="33.78" rerouteNo="0" devices="tripinfo_OD335_RV.1" vType="RV" speedFactor="1.00" vaporized=""/>
    <tripinfo id="OD186_RV.2" depart="81.00" departLane="top1B4_0" departPos="5.10" departSpeed="10.00" departDelay="3.29" arrival="153.00" arrivalLane="A4top0_0" arrivalPos="286.40" arrivalSpeed="13.72" duration="72.00" routeLength="858.56" waitingTime="0.00" waitingCount="0" stopTime="0.00" timeLoss="8.15" rerouteNo="0" devices="tripinfo_OD186_RV.2" vType="RV" speedFactor="1.00" vaporized=""/>
    <tripinfo id="OD331_RV.0" depart="3.00" departLane="right3E3_0" departPos="5.10" departSpeed="10.00" departDelay="0.34" arrival="154.00" arrivalLane="E2right2_2" arrivalPos="286.40" arrivalSpeed="12.84" duration="151.00" routeLength="889.52" waitingTime="76.00" waitingCount="1" stopTime="0.00" timeLoss="85.32" rerouteNo="0" devices="tripinfo_OD331_RV.0" vType="RV" speedFactor="1.00" vaporized=""/>
    <tripinfo id="OD83_RV.0" depart="33.00" departLane="bottom3D0_0" departPos="5.10" departSpeed="10.00" departDelay="0.63" arrival="154.00" arrivalLane="E2right2_0" arrivalPos="286.40" arrivalSpeed="12.44" duration="121.00" routeLength="1455.87" waitingTime="0.00" waitingCount="0" stopTime="0.00" timeLoss="14.08" rerouteNo="0" devices="tripinfo_OD83_RV.0" vType="RV" speedFactor="1.00" vaporized=""/>
    <tripinfo id="OD122_RV.0" depart="51.00" departLane="right1E1_0" departPos="5.10" departSpeed="10.00" departDelay="0.64" arrival="154.00" arrivalLane="E3right3_0" arrivalPos="286.40" arrivalSpeed="13.31" duration="103.00" routeLength="1158.56" waitingTime="3.00" waitingCount="1" stopTime="0.00" timeLoss="18.06" rerouteNo="0" devices="tripinfo_OD122_RV.0" vType="RV" speedFactor="1.00" vaporized=""/>
    <tripinfo id="OD278_RV.0" depart="7.00" departLane="right4E4_0" departPos="5.10" departSpeed="10.00" departDelay="1.39" arrival="155.00" arrivalLane="E1right1_2" arrivalPos="286.40" arrivalSpeed="13.59" duration="148.00" routeLength="1489.52" waitingTime="21.00" waitingCount="2" stopTime="0.00" timeLoss="39.32" rerouteNo="0" devices="tripinfo_OD278_RV.0" vType="RV" speedFactor="1.00" vaporized=""/>
    <tripinfo id="OD274_RV.0" depart="2.00" departLane="right4E4_0" departPos="5.10" departSpeed="10.00" departDelay="0.04" arrival="156.00" arrivalLane="E2right2_2" arrivalPos="286.40" arrivalSpeed="13.86" duration="154.00" routeLength="1189.52" waitingTime="49.00" waitingCount="2" stopTime="0.00" timeLoss="66.56" rerouteNo="0" devices="tripinfo_OD274_RV.0" vType="RV" speedFactor="1.00" vaporized=""/>
    <tripinfo id="OD371_RV.0" depart="17.00" departLane="bottom1B0_0" departPos="5.10" departSpeed="10.00" departDelay="0.08" arrival="156.00" arrivalLane="E0bottom4_0" arrivalPos="286.40" arrivalSpeed="13.32" duration="139.00" routeLength="1458.56" waitingTime="14.00" waitingCount="2" stopTime="0.00" timeLoss="32.59" rerouteNo="0" devices="tripinfo_OD371_RV.0" vType="RV" speedFactor="1.00" vaporized=""/>
    <tripinfo id="OD260_RV.0" depart="59.00" departLane="left2A2_0" departPos="5.10" departSpeed="10.00" departDelay="1.65" arrival="156.00" arrivalLane="A3left3_2" arrivalPos="286.40" arrivalSpeed="12.66" duration="97.00" routeLength="889.52" waitingTime="16.00" waitingCount="2" stopTime="0.00" timeLoss="31.14" rerouteNo="0" devices="tripinfo_OD260_RV.0" vType="RV" speedFactor="1.00" vaporized=""/>
    <tripinfo id="OD307_RV.1" depart="85.00" departLane="bottom0A0_0" departPos="5.10" departSpeed="10.00" departDelay="0.55" arrival="156.00" arrivalLane="B0bottom1_0" arrivalPos="286.40" arrivalSpeed="13.52" duration="71.00" routeLength="858.56" waitingTime="0.00" waitingCount="0" stopTime="0.00" timeLoss="7.14" rerouteNo="0" devices="tripinfo_OD307_RV.1" vType="RV" speedFactor="1.00" vaporized=""/>
    <tripinfo id="OD297_NV.0" depart="24.00" departLane="top4E4_0" departPos="5.10" departSpeed="10.00" departDelay="0.18" arrival="157.00" arrivalLane="E1right1_2" arrivalPos="286.40" arrivalSpeed="13.30" duration="133.00" routeLength="1492.21" waitingTime="5.00" waitingCount="1" stopTime="0.00" timeLoss="24.60" rerouteNo="0" devices="tripinfo_OD297_NV.0" vType="NV" speedFactor="1.00" vaporized=""/>
    <tripinfo id="OD264_RV.0" depart="63.00" departLane="left2A2_0" departPos="5.10" departSpeed="10.00" departDelay="0.47" arrival="157.00" arrivalLane="A0left0_0" arrivalPos="286.40" arrivalSpeed="12.94" duration="94.00" routeLength="1158.56" waitingTime="0.00" waitingCount="0" stopTime="0.00" timeLoss="8.81" rerouteNo="0" devices="tripinfo_OD264_RV.0" vType="RV" speedFactor="1.00" vaporized=""/>
    <tripinfo id="OD331_RV.1" depart="41.00" departLane="right3E3_0" departPos="5.10" departSpeed="10.00" departDelay="0.75" arrival="158.00" arrivalLane="E2right2_2" arrivalPos="286.40" arrivalSpeed="12.92" duration="117.00" routeLength="889.52" waitingTime="37.00" waitingCount="2" stopTime="0.00" timeLoss="51.04" rerouteNo="0" devices="tripinfo_OD331_RV.1" vType="RV" speedFactor="1.00" vaporized=""/>
    <tripinfo id="OD260_RV.1" depart="66.00" departLane="left2A2_0" departPos="5.10" departSpeed="10.00" departDelay="0.78" arrival="158.00" arrivalLane="A3left3_2" arrivalPos="286.40" arrivalSpeed="13.48" duration="92.00" routeLength="889.52" waitingTime="10.00" waitingCount="2" stopTime="0.00" timeLoss="26.11" rerouteNo="0" devices="tripinfo_OD260_RV.1" vType="RV" speedFactor="1.00" vaporized=""/>
    <tripinfo id="OD190_RV.0" depart="111.00" departLane="bottom4E0_0" departPos="5.10" departSpeed="10.00" departDelay="0.34" arrival="158.00" arrivalLane="E0right0_0" arrivalPos="286.40" arrivalSpeed="13.49" duration="47.00" routeLength="576.73" waitingTime="0.00" waitingCount="0" stopTime="0.00" timeLoss="4.40" rerouteNo="0" devices="tripinfo_OD190_RV.0" vType="RV" speedFactor="1.00" vaporized=""/>
    <tripinfo id="OD314_RV.0" depart="3.00" departLane="bottom0A0_0" departPos="5.10" departSpeed="10.00" departDelay="0.70" arrival="159.00" arrivalLane="E0bottom4_0" arrivalPos="286.40" arrivalSpeed="13.25" duration="156.00" routeLength="1758.56" waitingTime="8.00" waitingCount="1" stopTime="0.00" timeLoss="27.48" rerouteNo="0" devices="tripinfo_OD314_RV.0" vType="RV" speedFactor="1.00" vaporized=""/>
    <tripinfo id="OD232_NV.0" depart="38.00" departLane="left3A3_0" departPos="5.10" departSpeed="10.00" departDelay="0.13" arrival="159.00" arrivalLane="A1left1_0" arrivalPos="286.40" arrivalSpeed="12.90" duration="121.00" routeLength="1158.56" waitingTime="23.00" waitingCount="1" stopTime="0.00" timeLoss="36.06" rerouteNo="0" devices="tripinfo_OD232_NV.0" vType="NV" speedFactor="1.00" vaporized=""/>
    <tripinfo id="OD137_RV.0" depart="11.00" departLane="top0A4_0" departPos="5.10" departSpeed="10.00" departDelay="0.34" arrival="163.00" arrivalLane="A1left1_0" arrivalPos="286.40" arrivalSpeed="12.54" duration="152.00" routeLength="1476.73" waitingTime="17.00" waitingCount="1" stopTime="0.00" timeLoss="44.61" rerouteNo="0" devices="tripinfo_OD137_RV.0" vType="RV" speedFactor="1.00" vaporized=""/>
    <tripinfo id="OD325_RV.1" depart="46.00" departLane="right3E3_0" departPos="5.10" departSpeed="10.00" departDelay="0.10" arrival="163.00" arrivalLane="D4top3_1" arrivalPos="286.40" arrivalSpeed="13.88" duration="117.00" routeLength="1176.73" waitingTime="18.00" waitingCount="1" stopTime="0.00" timeLoss="31.70" rerouteNo="0" devices="tripinfo_OD325_RV.1" vType="RV" speedFactor="1.00" vaporized=""/>
    <tripinfo id="OD45_RV.0" depart="49.00" departLane="right0E0_0" departPos="5.10" departSpeed="10.00" departDelay="0.93" arrival="163.00" arrivalLane="E2right2_0" arrivalPos="286.40" arrivalSpeed="13.27" duration="114.00" routeLength="1158.56" waitingTime="17.00" waitingCount="1" stopTime="0.00" timeLoss="28.67" rerouteNo="0" devices="tripinfo_OD45_RV.0" vType="RV" speedFactor="1.00" vaporized=""/>
    <tripinfo id="OD220_RV.0" depart="9.00" departLane="bottom2C0_0" departPos="5.10" departSpeed="10.00" departDelay="1.64" arrival="164.00" arrivalLane="E1right1_1" arrivalPos="286.40" arrivalSpeed="13.05" duration="155.00" routeLength="1455.87" waitingTime="28.00" waitingCount="2" stopTime="0.00" timeLoss="48.10" rerouteNo="0" devices="tripinfo_OD220_RV.0" vType="RV" speedFactor="1.00" vaporized=""/>
    <tripinfo id="OD332_RV.0" depart="10.00" departLane="right3E3_0" departPos="5.10" departSpeed="10.00" departDelay="0.53" arrival="164.00" arrivalLane="E3right3_0" arrivalPos="286.40" arrivalSpeed="13.36" duration="154.00" routeLength="1768.66" waitingTime="3.00" waitingCount="1" stopTime="0.00" timeLoss="23.31" rerouteNo="0" devices="tripinfo_OD332_RV.0" vType="RV" speedFactor="1.00" vaporized=""/>
    <tripinfo id="OD124_RV.0" depart="12.00" departLane="right1E1_0" departPos="5.10" departSpeed="10.00" departDelay="0.18" arrival="164.00" arrivalLane="E4top4_1" arrivalPos="286.40" arrivalSpeed="12.40" duration="152.00" routeLength="1476.73" waitingTime="23.00" waitingCount="2" stopTime="0.00" timeLoss="44.69" rerouteNo="0" devices="tripinfo_OD124_RV.0" vType="RV" speedFactor="1.00" vaporized=""/>
    <tripinfo id="OD328_NV.0" depart="93.00" departLane="right3E3_0" departPos="5.10" departSpeed="10.00" departDelay="0.82" arrival="164.00" arrivalLane="E4right4_0" arrivalPos="286.40" arrivalSpeed="13.68" duration="71.00" routeLength="858.56" waitingTime="0.00" waitingCount="0" stopTime="0.00" timeLoss="7.45" rerouteNo="0" devices="tripinfo_OD328_NV.0" vType="NV" speedFactor="1.00" vaporized=""/>
    <tripinfo id="OD310_RV.0" depart="14.00" departLane="bottom0A0_0" departPos="5.10" departSpeed="10.00" departDelay="0.29" arrival="165.00" arrivalLane="D0bottom3_0" arrivalPos="286.40" arrivalSpeed="12.67" duration="151.00" routeLength="1458.56" waitingTime="25.00" waitingCount="1" stopTime="0.00" timeLoss="44.22" rerouteNo="0" devices="tripinfo_OD310_RV.0" vType="RV" speedFactor="1.00" vaporized=""/>
    <tripinfo id="OD220_NV.0" depart="45.00" departLane="bottom2C0_0" departPos="5.10" departSpeed="10.00" departDelay="0.91" arrival="166.00" arrivalLane="E1right1_1" arrivalPos="286.40" arrivalSpeed="13.06" duration="121.00" routeLength="1455.87" waitingTime="0.00" waitingCount="0" stopTime="0.00" timeLoss="14.53" rerouteNo="0" devices="tripinfo_OD220_NV.0" vType="NV" speedFactor="1.00" vaporized=""/>