<?xml version="1.0" encoding="UTF-8"?>

<!-- generated on 2025-02-25 08:20:45 by Eclipse SUMO sumo Version 1.20.0
<configuration xmlns:xsi="http://www.w3.org/2001/XMLSchema-instance" xsi:noNamespaceSchemaLocation="http://sumo.dlr.de/xsd/sumoConfiguration.xsd">

    <input>
        <net-file value="./envs/5x5/SV_pr/5x5.net.xml"/>
        <route-files value="./envs/5x5/SV_pr/Demand_60.rou.xml"/>
    </input>

    <output>
        <tripinfo-output value="./envs/5x5/SV_pr/tripinfo_MP_60.xml"/>
    </output>

    <time>
        <begin value="0"/>
    </time>

    <processing>
        <time-to-teleport value="-1"/>
        <waiting-time-memory value="1800"/>
    </processing>

    <report>
        <no-step-log value="true"/>
    </report>

    <traci_server>
        <remote-port value="65031"/>
    </traci_server>

</configuration>
-->

<tripinfos xmlns:xsi="http://www.w3.org/2001/XMLSchema-instance" xsi:noNamespaceSchemaLocation="http://sumo.dlr.de/xsd/tripinfo_file.xsd">
    <tripinfo id="OD149_NV.0" depart="7.00" departLane="top0A4_0" departPos="5.10" departSpeed="10.00" departDelay="0.02" arrival="54.00" arrivalLane="A4left4_0" arrivalPos="286.40" arrivalSpeed="12.44" duration="47.00" routeLength="576.73" waitingTime="0.00" waitingCount="0" stopTime="0.00" timeLoss="4.27" rerouteNo="0" devices="tripinfo_OD149_NV.0" vType="NV" speedFactor="1.00" vaporized=""/>
    <tripinfo id="OD290_NV.0" depart="4.00" departLane="top4E4_0" departPos="5.10" departSpeed="10.00" departDelay="1.51" arrival="58.00" arrivalLane="E4right4_2" arrivalPos="286.40" arrivalSpeed="13.24" duration="54.00" routeLength="592.21" waitingTime="4.00" waitingCount="1" stopTime="0.00" timeLoss="10.02" rerouteNo="0" devices="tripinfo_OD290_NV.0" vType="NV" speedFactor="1.00" vaporized=""/>
    <tripinfo id="OD190_NV.0" depart="14.00" departLane="bottom4E0_0" departPos="5.10" departSpeed="10.00" departDelay="1.53" arrival="61.00" arrivalLane="E0right0_0" arrivalPos="286.40" arrivalSpeed="13.23" duration="47.00" routeLength="576.73" waitingTime="0.00" waitingCount="0" stopTime="0.00" timeLoss="4.88" rerouteNo="0" devices="tripinfo_OD190_NV.0" vType="NV" speedFactor="1.00" vaporized=""/>
    <tripinfo id="OD190_NV.1" depart="25.00" departLane="bottom4E0_0" departPos="5.10" departSpeed="10.00" departDelay="0.02" arrival="72.00" arrivalLane="E0right0_0" arrivalPos="286.40" arrivalSpeed="12.68" duration="47.00" routeLength="576.73" waitingTime="0.00" waitingCount="0" stopTime="0.00" timeLoss="4.55" rerouteNo="0" devices="tripinfo_OD190_NV.1" vType="NV" speedFactor="1.00" vaporized=""/>
    <tripinfo id="OD186_RV.0" depart="5.00" departLane="top1B4_0" departPos="5.10" departSpeed="10.00" departDelay="0.79" arrival="75.00" arrivalLane="A4top0_0" arrivalPos="286.40" arrivalSpeed="13.32" duration="70.00" routeLength="858.56" waitingTime="0.00" waitingCount="0" stopTime="0.00" timeLoss="6.70" rerouteNo="0" devices="tripinfo_OD186_RV.0" vType="RV" speedFactor="1.00" vaporized=""/>
    <tripinfo id="OD307_RV.0" depart="8.00" departLane="bottom0A0_0" departPos="5.10" departSpeed="10.00" departDelay="2.39" arrival="81.00" arrivalLane="B0bottom1_0" arrivalPos="286.40" arrivalSpeed="13.25" duration="73.00" routeLength="858.56" waitingTime="0.00" waitingCount="0" stopTime="0.00" timeLoss="9.69" rerouteNo="0" devices="tripinfo_OD307_RV.0" vType="RV" speedFactor="1.00" vaporized=""/>
    <tripinfo id="OD347_RV.0" depart="3.00" departLane="top3D4_0" departPos="5.10" departSpeed="10.00" departDelay="0.70" arrival="82.00" arrivalLane="E4right4_1" arrivalPos="286.40" arrivalSpeed="12.85" duration="79.00" routeLength="892.21" waitingTime="4.00" waitingCount="1" stopTime="0.00" timeLoss="13.64" rerouteNo="0" devices="tripinfo_OD347_RV.0" vType="RV" speedFactor="1.00" vaporized=""/>
    <tripinfo id="OD149_NV.1" depart="40.00" departLane="top0A4_0" departPos="5.10" departSpeed="10.00" departDelay="0.33" arrival="87.00" arrivalLane="A4left4_0" arrivalPos="286.40" arrivalSpeed="13.65" duration="47.00" routeLength="576.73" waitingTime="0.00" waitingCount="0" stopTime="0.00" timeLoss="4.23" rerouteNo="0" devices="tripinfo_OD149_NV.1" vType="NV" speedFactor="1.00" vaporized=""/>
    <tripinfo id="OD251_NV.0" depart="16.00" departLane="left2A2_0" departPos="5.10" departSpeed="10.00" departDelay="3.20" arrival="88.00" arrivalLane="A1left1_0" arrivalPos="286.40" arrivalSpeed="12.77" duration="72.00" routeLength="858.56" waitingTime="0.00" waitingCount="0" stopTime="0.00" timeLoss="7.52" rerouteNo="0" devices="tripinfo_OD251_NV.0" vType="NV" speedFactor="1.00" vaporized=""/>
    <tripinfo id="OD201_NV.0" depart="21.00" departLane="bottom4E0_0" departPos="5.10" departSpeed="10.00" departDelay="0.44" arrival="91.00" arrivalLane="E1right1_0" arrivalPos="286.40" arrivalSpeed="12.40" duration="70.00" routeLength="876.73" waitingTime="0.00" waitingCount="0" stopTime="0.00" timeLoss="5.91" rerouteNo="0" devices="tripinfo_OD201_NV.0" vType="NV" speedFactor="1.00" vaporized=""/>
    <tripinfo id="OD374_NV.0" depart="22.00" departLane="bottom1B0_0" departPos="5.10" departSpeed="10.00" departDelay="0.16" arrival="92.00" arrivalLane="C0bottom2_0" arrivalPos="286.40" arrivalSpeed="12.46" duration="70.00" routeLength="858.56" waitingTime="0.00" waitingCount="0" stopTime="0.00" timeLoss="6.77" rerouteNo="0" devices="tripinfo_OD374_NV.0" vType="NV" speedFactor="1.00" vaporized=""/>
    <tripinfo id="OD3_NV.0" depart="8.00" departLane="left0A0_0" departPos="5.10" departSpeed="10.00" departDelay="0.36" arrival="94.00" arrivalLane="A1left1_2" arrivalPos="286.40" arrivalSpeed="13.02" duration="86.00" routeLength="889.52" waitingTime="10.00" waitingCount="1" stopTime="0.00" timeLoss="20.11" rerouteNo="0" devices="tripinfo_OD3_NV.0" vType="NV" speedFactor="1.00" vaporized=""/>
    <tripinfo id="OD189_RV.0" depart="8.00" departLane="top1B4_0" departPos="5.10" departSpeed="10.00" departDelay="0.02" arrival="94.00" arrivalLane="C4top2_2" arrivalPos="286.40" arrivalSpeed="12.89" duration="86.00" routeLength="889.52" waitingTime="11.00" waitingCount="1" stopTime="0.00" timeLoss="20.25" rerouteNo="0" devices="tripinfo_OD189_RV.0" vType="RV" speedFactor="1.00" vaporized=""/>
    <tripinfo id="OD49_RV.0" depart="20.00" departLane="right0E0_0" departPos="5.10" departSpeed="10.00" departDelay="0.19" arrival="94.00" arrivalLane="E1right1_0" arrivalPos="286.40" arrivalSpeed="13.00" duration="74.00" routeLength="858.56" waitingTime="0.00" waitingCount="0" stopTime="0.00" timeLoss="10.01" rerouteNo="0" devices="tripinfo_OD49_RV.0" vType="RV" speedFactor="1.00" vaporized=""/>
    <tripinfo id="OD235_RV.0" depart="23.00" departLane="left3A3_0" departPos="5.10" departSpeed="10.00" departDelay="0.67" arrival="94.00" arrivalLane="A2left2_0" arrivalPos="286.40" arrivalSpeed="13.87" duration="71.00" routeLength="858.56" waitingTime="0.00" waitingCount="0" stopTime="0.00" timeLoss="7.19" rerouteNo="0" devices="tripinfo_OD235_RV.0" vType="RV" speedFactor="1.00" vaporized=""/>
    <tripinfo id="OD328_NV.0" depart="24.00" departLane="right3E3_0" departPos="5.10" departSpeed="10.00" departDelay="0.18" arrival="95.00" arrivalLane="E4right4_0" arrivalPos="286.40" arrivalSpeed="13.23" duration="71.00" routeLength="858.56" waitingTime="0.00" waitingCount="0" stopTime="0.00" timeLoss="7.39" rerouteNo="0" devices="tripinfo_OD328_NV.0" vType="NV" speedFactor="1.00" vaporized=""/>
    <tripinfo id="OD20_NV.0" depart="2.00" departLane="top2C4_0" departPos="5.10" departSpeed="10.00" departDelay="0.73" arrival="97.00" arrivalLane="D4top3_2" arrivalPos="286.40" arrivalSpeed="13.15" duration="95.00" routeLength="889.52" waitingTime="17.00" waitingCount="2" stopTime="0.00" timeLoss="29.34" rerouteNo="0" devices="tripinfo_OD20_NV.0" vType="NV" speedFactor="1.00" vaporized=""/>
    <tripinfo id="OD307_RV.1" depart="26.00" departLane="bottom0A0_0" departPos="5.10" departSpeed="10.00" departDelay="0.53" arrival="97.00" arrivalLane="B0bottom1_0" arrivalPos="286.40" arrivalSpeed="13.01" duration="71.00" routeLength="858.56" waitingTime="0.00" waitingCount="0" stopTime="0.00" timeLoss="7.58" rerouteNo="0" devices="tripinfo_OD307_RV.1" vType="RV" speedFactor="1.00" vaporized=""/>
    <tripinfo id="OD243_RV.0" depart="10.00" departLane="left3A3_0" departPos="5.10" departSpeed="10.00" departDelay="2.64" arrival="98.00" arrivalLane="A4top0_1" arrivalPos="286.40" arrivalSpeed="13.77" duration="88.00" routeLength="892.21" waitingTime="13.00" waitingCount="1" stopTime="0.00" timeLoss="22.30" rerouteNo="0" devices="tripinfo_OD243_RV.0" vType="RV" speedFactor="1.00" vaporized=""/>
    <tripinfo id="OD123_NV.0" depart="21.00" departLane="right1E1_0" departPos="5.10" departSpeed="10.00" departDelay="0.10" arrival="105.00" arrivalLane="E0bottom4_1" arrivalPos="286.40" arrivalSpeed="13.52" duration="84.00" routeLength="892.21" waitingTime="10.00" waitingCount="1" stopTime="0.00" timeLoss="18.72" rerouteNo="0" devices="tripinfo_OD123_NV.0" vType="NV" speedFactor="1.00" vaporized=""/>
    <tripinfo id="OD74_RV.0" depart="35.00" departLane="left1A1_0" departPos="5.10" departSpeed="10.00" departDelay="1.05" arrival="105.00" arrivalLane="A0left0_0" arrivalPos="286.40" arrivalSpeed="13.23" duration="70.00" routeLength="858.56" waitingTime="0.00" waitingCount="0" stopTime="0.00" timeLoss="6.88" rerouteNo="0" devices="tripinfo_OD74_RV.0" vType="RV" speedFactor="1.00" vaporized=""/>
    <tripinfo id="OD294_NV.0" depart="27.00" departLane="top4E4_0" departPos="5.10" departSpeed="10.00" departDelay="0.58" arrival="108.00" arrivalLane="E3right3_2" arrivalPos="286.40" arrivalSpeed="13.33" duration="81.00" routeLength="892.21" waitingTime="6.00" waitingCount="1" stopTime="0.00" timeLoss="15.47" rerouteNo="0" devices="tripinfo_OD294_NV.0" vType="NV" speedFactor="1.00" vaporized=""/>
    <tripinfo id="OD303_RV.0" depart="2.00" departLane="top4E4_0" departPos="5.10" departSpeed="10.00" departDelay="0.04" arrival="109.00" arrivalLane="C4top2_0" arrivalPos="286.40" arrivalSpeed="12.96" duration="107.00" routeLength="1158.56" waitingTime="5.00" waitingCount="1" stopTime="0.00" timeLoss="21.39" rerouteNo="0" devices="tripinfo_OD303_RV.0" vType="RV" speedFactor="1.00" vaporized=""/>
    <tripinfo id="OD379_RV.0" depart="6.00" departLane="bottom1B0_0" departPos="5.10" departSpeed="10.00" departDelay="0.58" arrival="109.00" arrivalLane="A0left0_1" arrivalPos="286.40" arrivalSpeed="12.46" duration="103.00" routeLength="892.21" waitingTime="23.00" waitingCount="2" stopTime="0.00" timeLoss="38.13" rerouteNo="0" devices="tripinfo_OD379_RV.0" vType="RV" speedFactor="1.00" vaporized=""/>
    <tripinfo id="OD79_RV.0" depart="3.00" departLane="bottom3D0_0" departPos="5.10" departSpeed="10.00" departDelay="0.99" arrival="110.00" arrivalLane="B0bottom1_2" arrivalPos="286.40" arrivalSpeed="13.82" duration="107.00" routeLength="1189.52" waitingTime="7.00" waitingCount="2" stopTime="0.00" timeLoss="20.17" rerouteNo="0" devices="tripinfo_OD79_RV.0" vType="RV" speedFactor="1.00" vaporized=""/>
    <tripinfo id="OD353_NV.0" depart="5.00" departLane="top3D4_0" departPos="5.10" departSpeed="10.00" departDelay="2.40" arrival="110.00" arrivalLane="E4top4_2" arrivalPos="286.40" arrivalSpeed="13.06" duration="105.00" routeLength="889.52" waitingTime="24.00" waitingCount="2" stopTime="0.00" timeLoss="39.26" rerouteNo="0" devices="tripinfo_OD353_NV.0" vType="NV" speedFactor="1.00" vaporized=""/>
    <tripinfo id="OD317_NV.0" depart="5.00" departLane="bottom0A0_0" departPos="5.10" departSpeed="10.00" departDelay="0.73" arrival="110.00" arrivalLane="C0bottom2_0" arrivalPos="286.40" arrivalSpeed="13.13" duration="105.00" routeLength="1158.56" waitingTime="4.00" waitingCount="1" stopTime="0.00" timeLoss="19.70" rerouteNo="0" devices="tripinfo_OD317_NV.0" vType="NV" speedFactor="1.00" vaporized=""/>
    <tripinfo id="OD263_RV.0" depart="6.00" departLane="left2A2_0" departPos="5.10" departSpeed="10.00" departDelay="0.30" arrival="110.00" arrivalLane="A4left4_2" arrivalPos="286.40" arrivalSpeed="12.40" duration="104.00" routeLength="1189.52" waitingTime="4.00" waitingCount="1" stopTime="0.00" timeLoss="17.06" rerouteNo="0" devices="tripinfo_OD263_RV.0" vType="RV" speedFactor="1.00" vaporized=""/>
    <tripinfo id="OD367_NV.0" depart="10.00" departLane="bottom1B0_0" departPos="5.10" departSpeed="10.00" departDelay="0.53" arrival="110.00" arrivalLane="D0bottom3_0" arrivalPos="286.40" arrivalSpeed="12.47" duration="100.00" routeLength="1158.56" waitingTime="4.00" waitingCount="1" stopTime="0.00" timeLoss="15.08" rerouteNo="0" devices="tripinfo_OD367_NV.0" vType="NV" speedFactor="1.00" vaporized=""/>
    <tripinfo id="OD353_RV.0" depart="10.00" departLane="top3D4_0" departPos="5.10" departSpeed="10.00" departDelay="0.22" arrival="111.00" arrivalLane="E4top4_2" arrivalPos="286.40" arrivalSpeed="12.65" duration="101.00" routeLength="889.52" waitingTime="19.00" waitingCount="1" stopTime="0.00" timeLoss="36.01" rerouteNo="0" devices="tripinfo_OD353_RV.0" vType="RV" speedFactor="1.00" vaporized=""/>
    <tripinfo id="OD33_RV.0" depart="43.00" departLane="top2C4_0" departPos="5.10" departSpeed="10.00" departDelay="0.91" arrival="113.00" arrivalLane="B4top1_0" arrivalPos="286.40" arrivalSpeed="13.58" duration="70.00" routeLength="858.56" waitingTime="0.00" waitingCount="0" stopTime="0.00" timeLoss="6.94" rerouteNo="0" devices="tripinfo_OD33_RV.0" vType="RV" speedFactor="1.00" vaporized=""/>
    <tripinfo id="OD45_RV.0" depart="6.00" departLane="right0E0_0" departPos="5.10" departSpeed="10.00" departDelay="0.70" arrival="119.00" arrivalLane="E2right2_0" arrivalPos="286.40" arrivalSpeed="13.44" duration="113.00" routeLength="1158.56" waitingTime="12.00" waitingCount="1" stopTime="0.00" timeLoss="28.37" rerouteNo="0" devices="tripinfo_OD45_RV.0" vType="RV" speedFactor="1.00" vaporized=""/>
    <tripinfo id="OD34_RV.0" depart="10.00" departLane="top2C4_0" departPos="5.10" departSpeed="10.00" departDelay="0.93" arrival="120.00" arrivalLane="A4top0_0" arrivalPos="286.40" arrivalSpeed="12.41" duration="110.00" routeLength="1158.56" waitingTime="11.00" waitingCount="1" stopTime="0.00" timeLoss="24.23" rerouteNo="0" devices="tripinfo_OD34_RV.0" vType="RV" speedFactor="1.00" vaporized=""/>
    <tripinfo id="OD198_RV.0" depart="16.00" departLane="bottom4E0_0" departPos="5.10" departSpeed="10.00" departDelay="3.02" arrival="123.00" arrivalLane="E2right2_0" arrivalPos="286.40" arrivalSpeed="13.62" duration="107.00" routeLength="1176.73" waitingTime="7.00" waitingCount="1" stopTime="0.00" timeLoss="21.15" rerouteNo="0" devices="tripinfo_OD198_RV.0" vType="RV" speedFactor="1.00" vaporized=""/>
    <tripinfo id="OD162_RV.0" depart="16.00" departLane="right2E2_0" departPos="5.10" departSpeed="10.00" departDelay="0.58" arrival="123.00" arrivalLane="E4top4_1" arrivalPos="286.40" arrivalSpeed="12.85" duration="107.00" routeLength="1176.73" waitingTime="4.00" waitingCount="1" stopTime="0.00" timeLoss="20.53" rerouteNo="0" devices="tripinfo_OD162_RV.0" vType="RV" speedFactor="1.00" vaporized=""/>
    <tripinfo id="OD201_NV.1" depart="37.00" departLane="bottom4E0_0" departPos="5.10" departSpeed="10.00" departDelay="0.40" arrival="123.00" arrivalLane="E1right1_0" arrivalPos="286.40" arrivalSpeed="12.62" duration="86.00" routeLength="876.73" waitingTime="13.00" waitingCount="1" stopTime="0.00" timeLoss="21.73" rerouteNo="0" devices="tripinfo_OD201_NV.1" vType="NV" speedFactor="1.00" vaporized=""/>
    <tripinfo id="OD187_RV.0" depart="24.00" departLane="top1B4_0" departPos="5.10" departSpeed="10.00" departDelay="0.41" arrival="124.00" arrivalLane="A4left4_1" arrivalPos="286.40" arrivalSpeed="12.72" duration="100.00" routeLength="876.73" waitingTime="25.00" waitingCount="1" stopTime="0.00" timeLoss="36.09" rerouteNo="0" devices="tripinfo_OD187_RV.0" vType="RV" speedFactor="1.00" vaporized=""/>
    <tripinfo id="OD321_NV.0" depart="78.00" departLane="bottom0A0_0" departPos="5.10" departSpeed="10.00" departDelay="0.12" arrival="125.00" arrivalLane="A0left0_2" arrivalPos="286.40" arrivalSpeed="13.78" duration="47.00" routeLength="592.21" waitingTime="0.00" waitingCount="0" stopTime="0.00" timeLoss="3.00" rerouteNo="0" devices="tripinfo_OD321_NV.0" vType="NV" speedFactor="1.00" vaporized=""/>
    <tripinfo id="OD187_RV.1" depart="43.00" departLane="top1B4_0" departPos="5.10" departSpeed="10.00" departDelay="0.06" arrival="126.00" arrivalLane="A4left4_1" arrivalPos="286.40" arrivalSpeed="13.07" duration="83.00" routeLength="876.73" waitingTime="8.00" waitingCount="1" stopTime="0.00" timeLoss="19.07" rerouteNo="0" devices="tripinfo_OD187_RV.1" vType="RV" speedFactor="1.00" vaporized=""/>
    <tripinfo id="OD374_RV.0" depart="56.00" departLane="bottom1B0_0" departPos="5.10" departSpeed="10.00" departDelay="0.61" arrival="126.00" arrivalLane="C0bottom2_0" arrivalPos="286.40" arrivalSpeed="13.57" duration="70.00" routeLength="858.56" waitingTime="0.00" waitingCount="0" stopTime="0.00" timeLoss="7.21" rerouteNo="0" devices="tripinfo_OD374_RV.0" vType="RV" speedFactor="1.00" vaporized=""/>
    <tripinfo id="OD201_RV.0" depart="44.00" departLane="bottom4E0_0" departPos="5.10" departSpeed="10.00" departDelay="0.45" arrival="127.00" arrivalLane="E1right1_0" arrivalPos="286.40" arrivalSpeed="13.53" duration="83.00" routeLength="876.73" waitingTime="8.00" waitingCount="1" stopTime="0.00" timeLoss="18.74" rerouteNo="0" devices="tripinfo_OD201_RV.0" vType="RV" speedFactor="1.00" vaporized=""/>
    <tripinfo id="OD287_NV.0" depart="57.00" departLane="top4E4_0" departPos="5.10" departSpeed="10.00" departDelay="0.61" arrival="128.00" arrivalLane="D4top3_0" arrivalPos="286.40" arrivalSpeed="13.04" duration="71.00" routeLength="858.56" waitingTime="0.00" waitingCount="0" stopTime="0.00" timeLoss="7.70" rerouteNo="0" devices="tripinfo_OD287_NV.0" vType="NV" speedFactor="1.00" vaporized=""/>
    <tripinfo id="OD178_RV.0" depart="10.00" departLane="top1B4_0" departPos="5.10" departSpeed="10.00" departDelay="0.60" arrival="132.00" arrivalLane="A2left2_0" arrivalPos="286.40" arrivalSpeed="12.67" duration="122.00" routeLength="1455.87" waitingTime="0.00" waitingCount="0" stopTime="0.00" timeLoss="14.91" rerouteNo="0" devices="tripinfo_OD178_RV.0" vType="RV" speedFactor="1.00" vaporized=""/>
    <tripinfo id="OD251_RV.0" depart="61.00" departLane="left2A2_0" departPos="5.10" departSpeed="10.00" departDelay="0.14" arrival="132.00" arrivalLane="A1left1_0" arrivalPos="286.40" arrivalSpeed="12.66" duration="71.00" routeLength="858.56" waitingTime="0.00" waitingCount="0" stopTime="0.00" timeLoss="7.41" rerouteNo="0" devices="tripinfo_OD251_RV.0" vType="RV" speedFactor="1.00" vaporized=""/>
    <tripinfo id="OD374_NV.1" depart="60.00" departLane="bottom1B0_0" departPos="5.10" departSpeed="10.00" departDelay="0.36" arrival="133.00" arrivalLane="C0bottom2_0" arrivalPos="286.40" arrivalSpeed="13.47" duration="73.00" routeLength="858.56" waitingTime="0.00" waitingCount="0" stopTime="0.00" timeLoss="9.02" rerouteNo="0" devices="tripinfo_OD374_NV.1" vType="NV" speedFactor="1.00" vaporized=""/>
    <tripinfo id="OD87_NV.0" depart="25.00" departLane="bottom3D0_0" departPos="5.10" departSpeed="10.00" departDelay="0.35" arrival="135.00" arrivalLane="E1right1_1" arrivalPos="286.40" arrivalSpeed="12.83" duration="110.00" routeLength="1176.73" waitingTime="7.00" waitingCount="1" stopTime="0.00" timeLoss="24.13" rerouteNo="0" devices="tripinfo_OD87_NV.0" vType="NV" speedFactor="1.00" vaporized=""/>
    <tripinfo id="OD260_RV.0" depart="21.00" departLane="left2A2_0" departPos="5.10" departSpeed="10.00" departDelay="0.21" arrival="136.00" arrivalLane="A3left3_2" arrivalPos="286.40" arrivalSpeed="13.23" duration="115.00" routeLength="889.52" waitingTime="36.00" waitingCount="2" stopTime="0.00" timeLoss="49.34" rerouteNo="0" devices="tripinfo_OD260_RV.0" vType="RV" speedFactor="1.00" vaporized=""/>
    <tripinfo id="OD243_NV.0" depart="45.00" departLane="left3A3_0" departPos="5.10" departSpeed="10.00" departDelay="0.91" arrival="136.00" arrivalLane="A4top0_1" arrivalPos="286.40" arrivalSpeed="13.02" duration="91.00" routeLength="892.21" waitingTime="13.00" waitingCount="1" stopTime="0.00" timeLoss="26.18" rerouteNo="0" devices="tripinfo_OD243_NV.0" vType="NV" speedFactor="1.00" vaporized=""/>
    <tripinfo id="OD215_NV.0" depart="64.00" departLane="bottom2C0_0" departPos="5.10" departSpeed="10.00" departDelay="0.10" arrival="136.00" arrivalLane="D0bottom3_0" arrivalPos="286.40" arrivalSpeed="13.02" duration="72.00" routeLength="858.56" waitingTime="0.00" waitingCount="0" stopTime="0.00" timeLoss="8.00" rerouteNo="0" devices="tripinfo_OD215_NV.0" vType="NV" speedFactor="1.00" vaporized=""/>
    <tripinfo id="OD243_NV.1" depart="51.00" departLane="left3A3_0" departPos="5.10" departSpeed="10.00" departDelay="0.63" arrival="138.00" arrivalLane="A4top0_1" arrivalPos="286.40" arrivalSpeed="13.27" duration="87.00" routeLength="892.21" waitingTime="9.00" waitingCount="1" stopTime="0.00" timeLoss="21.75" rerouteNo="0" devices="tripinfo_OD243_NV.1" vType="NV" speedFactor="1.00" vaporized=""/>
    <tripinfo id="OD114_RV.0" depart="38.00" departLane="right1E1_0" departPos="5.10" departSpeed="10.00" departDelay="0.91" arrival="139.00" arrivalLane="E0right0_2" arrivalPos="286.40" arrivalSpeed="13.49" duration="101.00" routeLength="889.52" waitingTime="26.00" waitingCount="1" stopTime="0.00" timeLoss="35.57" rerouteNo="0" devices="tripinfo_OD114_RV.0" vType="RV" speedFactor="1.00" vaporized=""/>
    <tripinfo id="OD121_RV.0" depart="70.00" departLane="right1E1_0" departPos="5.10" departSpeed="10.00" departDelay="0.64" arrival="140.00" arrivalLane="E2right2_0" arrivalPos="286.40" arrivalSpeed="13.32" duration="70.00" routeLength="858.56" waitingTime="0.00" waitingCount="0" stopTime="0.00" timeLoss="6.61" rerouteNo="0" devices="tripinfo_OD121_RV.0" vType="RV" speedFactor="1.00" vaporized=""/>
    <tripinfo id="OD152_RV.0" depart="11.00" departLane="right2E2_0" departPos="5.10" departSpeed="10.00" departDelay="0.34" arrival="141.00" arrivalLane="E0right0_2" arrivalPos="286.40" arrivalSpeed="13.50" duration="130.00" routeLength="1189.52" waitingTime="29.00" waitingCount="2" stopTime="0.00" timeLoss="42.95" rerouteNo="0" devices="tripinfo_OD152_RV.0" vType="RV" speedFactor="1.00" vaporized=""/>
    <tripinfo id="OD215_RV.0" depart="71.00" departLane="bottom2C0_0" departPos="5.10" departSpeed="10.00" departDelay="0.90" arrival="142.00" arrivalLane="D0bottom3_0" arrivalPos="286.40" arrivalSpeed="13.14" duration="71.00" routeLength="858.56" waitingTime="0.00" waitingCount="0" stopTime="0.00" timeLoss="7.88" rerouteNo="0" devices="tripinfo_OD215_RV.0" vType="RV" speedFactor="1.00" vaporized=""/>
    <tripinfo id="OD307_RV.2" depart="71.00" departLane="bottom0A0_0" departPos="5.10" departSpeed="10.00" departDelay="0.19" arrival="142.00" arrivalLane="B0bottom1_0" arrivalPos="286.40" arrivalSpeed="13.13" duration="71.00" routeLength="858.56" waitingTime="0.00" waitingCount="0" stopTime="0.00" timeLoss="7.60" rerouteNo="0" devices="tripinfo_OD307_RV.2" vType="RV" speedFactor="1.00" vaporized=""/>
    <tripinfo id="OD158_NV.0" depart="12.00" departLane="right2E2_0" departPos="5.10" departSpeed="10.00" departDelay="0.11" arrival="144.00" arrivalLane="D0bottom3_1" arrivalPos="286.40" arrivalSpeed="12.55" duration="132.00" routeLength="1471.35" waitingTime="9.00" waitingCount="1" stopTime="0.00" timeLoss="23.23" rerouteNo="0" devices="tripinfo_OD158_NV.0" vType="NV" speedFactor="1.00" vaporized=""/>
    <tripinfo id="OD215_RV.1" depart="76.00" departLane="bottom2C0_0" departPos="5.10" departSpeed="10.00" departDelay="0.26" arrival="146.00" arrivalLane="D0bottom3_0" arrivalPos="286.40" arrivalSpeed="13.77" duration="70.00" routeLength="858.56" waitingTime="0.00" waitingCount="0" stopTime="0.00" timeLoss="6.85" rerouteNo="0" devices="tripinfo_OD215_RV.1" vType="RV" speedFactor="1.00" vaporized=""/>
    <tripinfo id="OD245_RV.0" depart="2.00" departLane="left3A3_0" departPos="5.10" departSpeed="10.00" departDelay="0.05" arrival="147.00" arrivalLane="A0left0_0" arrivalPos="286.40" arrivalSpeed="13.04" duration="145.00" routeLength="1458.56" waitingTime="17.00" waitingCount="2" stopTime="0.00" timeLoss="38.33" rerouteNo="0" devices="tripinfo_OD245_RV.0" vType="RV" speedFactor="1.00" vaporized=""/>
    <tripinfo id="OD242_NV.0" depart="11.00" departLane="left3A3_0" departPos="5.10" departSpeed="10.00" departDelay="2.36" arrival="148.00" arrivalLane="B4top1_2" arrivalPos="286.40" arrivalSpeed="13.23" duration="137.00" routeLength="1171.35" waitingTime="37.00" waitingCount="1" stopTime="0.00" timeLoss="50.28" rerouteNo="0" devices="tripinfo_OD242_NV.0" vType="NV" speedFactor="1.00" vaporized=""/>
    <tripinfo id="OD49_NV.0" depart="78.00" departLane="right0E0_0" departPos="5.10" departSpeed="10.00" departDelay="0.36" arrival="148.00" arrivalLane="E1right1_0" arrivalPos="286.40" arrivalSpeed="13.29" duration="70.00" routeLength="858.56" waitingTime="0.00" waitingCount="0" stopTime="0.00" timeLoss="7.09" rerouteNo="0" devices="tripinfo_OD49_NV.0" vType="NV" speedFactor="1.00" vaporized=""/>
    <tripinfo id="OD245_RV.1" depart="8.00" departLane="left3A3_0" departPos="5.10" departSpeed="10.00" departDelay="0.65" arrival="149.00" arrivalLane="A0left0_0" arrivalPos="286.40" arrivalSpeed="13.16" duration="141.00" routeLength="1458.56" waitingTime="14.00" waitingCount="2" stopTime="0.00" timeLoss="33.81" rerouteNo="0" devices="tripinfo_OD245_RV.1" vType="RV" speedFactor="1.00" vaporized=""/>
    <tripinfo id="OD20_NV.1" depart="40.00" departLane="top2C4_0" departPos="5.10" departSpeed="10.00" departDelay="0.68" arrival="149.00" arrivalLane="D4top3_2" arrivalPos="286.40" arrivalSpeed="13.59" duration="109.00" routeLength="889.52" waitingTime="29.00" waitingCount="2" stopTime="0.00" timeLoss="43.53" rerouteNo="0" devices="tripinfo_OD20_NV.1" vType="NV" speedFactor="1.00" vaporized=""/>
    <tripinfo id="OD186_NV.0" depart="77.00" departLane="top1B4_0" departPos="5.10" departSpeed="10.00" departDelay="1.22" arrival="149.00" arrivalLane="A4top0_0" arrivalPos="286.40" arrivalSpeed="13.38" duration="72.00" routeLength="858.56" waitingTime="0.00" waitingCount="0" stopTime="0.00" timeLoss="7.96" rerouteNo="0" devices="tripinfo_OD186_NV.0" vType="NV" speedFactor="1.00" vaporized=""/>
    <tripinfo id="OD147_RV.0" depart="48.00" departLane="top0A4_0" departPos="5.10" departSpeed="10.00" departDelay="0.66" arrival="150.00" arrivalLane="B4top1_2" arrivalPos="286.40" arrivalSpeed="13.49" duration="102.00" routeLength="889.52" waitingTime="23.00" waitingCount="2" stopTime="0.00" timeLoss="36.07" rerouteNo="0" devices="tripinfo_OD147_RV.0" vType="RV" speedFactor="1.00" vaporized=""/>
    <tripinfo id="OD185_RV.0" depart="2.00" departLane="top1B4_0" departPos="5.10" departSpeed="10.00" departDelay="0.70" arrival="152.00" arrivalLane="B4top1_2" arrivalPos="286.40" arrivalSpeed="13.00" duration="150.00" routeLength="1737.70" waitingTime="4.00" waitingCount="1" stopTime="0.00" timeLoss="21.39" rerouteNo="0" devices="tripinfo_OD185_RV.0" vType="RV" speedFactor="1.00" vaporized=""/>
    <tripinfo id="OD245_NV.0" depart="27.00" departLane="left3A3_0" departPos="5.10" departSpeed="10.00" departDelay="0.79" arrival="152.00" arrivalLane="A0left0_0" arrivalPos="286.40" arrivalSpeed="12.51" duration="125.00" routeLength="1458.56" waitingTime="0.00" waitingCount="0" stopTime="0.00" timeLoss="18.41" rerouteNo="0" devices="tripinfo_OD245_NV.0" vType="NV" speedFactor="1.00" vaporized=""/>
    <tripinfo id="OD76_NV.0" depart="65.00" departLane="bottom3D0_0" departPos="5.10" departSpeed="10.00" departDelay="0.41" arrival="152.00" arrivalLane="E0right0_1" arrivalPos="286.40" arrivalSpeed="13.41" duration="87.00" routeLength="876.73" waitingTime="12.00" waitingCount="1" stopTime="0.00" timeLoss="23.24" rerouteNo="0" devices="tripinfo_OD76_NV.0" vType="NV" speedFactor="1.00" vaporized=""/>
    <tripinfo id="OD310_NV.0" depart="21.00" departLane="bottom0A0_0" departPos="5.10" departSpeed="10.00" departDelay="1.80" arrival="153.00" arrivalLane="D0bottom3_0" arrivalPos="286.40" arrivalSpeed="13.88" duration="132.00" routeLength="1458.56" waitingTime="12.00" waitingCount="1" stopTime="0.00" timeLoss="25.26" rerouteNo="0" devices="tripinfo_OD310_NV.0" vType="NV" speedFactor="1.00" vaporized=""/>
    <tripinfo id="OD264_NV.0" depart="52.00" departLane="left2A2_0" departPos="5.10" departSpeed="10.00" departDelay="0.56" arrival="155.00" arrivalLane="A0left0_0" arrivalPos="286.40" arrivalSpeed="13.73" duration="103.00" routeLength="1158.56" waitingTime="0.00" waitingCount="0" stopTime="0.00" timeLoss="17.66" rerouteNo="0" devices="tripinfo_OD264_NV.0" vType="NV" speedFactor="1.00" vaporized=""/>
    <tripinfo id="OD33_RV.1" depart="85.00" departLane="top2C4_0" departPos="5.10" departSpeed="10.00" departDelay="1.44" arrival="156.00" arrivalLane="B4top1_0" arrivalPos="286.40" arrivalSpeed="13.67" duration="71.00" routeLength="858.56" waitingTime="0.00" waitingCount="0" stopTime="0.00" timeLoss="6.97" rerouteNo="0" devices="tripinfo_OD33_RV.1" vType="RV" speedFactor="1.00" vaporized=""/>
    <tripinfo id="OD162_RV.1" depart="34.00" departLane="right2E2_0" departPos="5.10" departSpeed="10.00" departDelay="2.09" arrival="157.00" arrivalLane="E4top4_1" arrivalPos="286.40" arrivalSpeed="13.35" duration="123.00" routeLength="1176.73" waitingTime="24.00" waitingCount="1" stopTime="0.00" timeLoss="36.74" rerouteNo="0" devices="tripinfo_OD162_RV.1" vType="RV" speedFactor="1.00" vaporized=""/>
    <tripinfo id="OD33_RV.2" depart="88.00" departLane="top2C4_0" departPos="5.10" departSpeed="10.00" departDelay="1.93" arrival="158.00" arrivalLane="B4top1_0" arrivalPos="286.40" arrivalSpeed="13.54" duration="70.00" routeLength="858.56" waitingTime="0.00" waitingCount="0" stopTime="0.00" timeLoss="7.19" rerouteNo="0" devices="tripinfo_OD33_RV.2" vType="RV" speedFactor="1.00" vaporized=""/>