<?xml version="1.0" encoding="UTF-8"?>

<!-- generated on 2025-02-25 05:26:52 by Eclipse SUMO sumo Version 1.20.0
<configuration xmlns:xsi="http://www.w3.org/2001/XMLSchema-instance" xsi:noNamespaceSchemaLocation="http://sumo.dlr.de/xsd/sumoConfiguration.xsd">

    <input>
        <net-file value="./envs/5x5/SV_pr/5x5.net.xml"/>
        <route-files value="./envs/5x5/SV_pr/Demand_50.rou.xml"/>
    </input>

    <output>
        <tripinfo-output value="./envs/5x5/SV_pr/tripinfo_MP_50.xml"/>
    </output>

    <time>
        <begin value="0"/>
    </time>

    <processing>
        <time-to-teleport value="-1"/>
        <waiting-time-memory value="1800"/>
    </processing>

    <report>
        <no-step-log value="true"/>
    </report>

    <traci_server>
        <remote-port value="62732"/>
    </traci_server>

</configuration>
-->

<tripinfos xmlns:xsi="http://www.w3.org/2001/XMLSchema-instance" xsi:noNamespaceSchemaLocation="http://sumo.dlr.de/xsd/tripinfo_file.xsd">
    <tripinfo id="OD149_NV.0" depart="7.00" departLane="top0A4_0" departPos="5.10" departSpeed="10.00" departDelay="0.02" arrival="54.00" arrivalLane="A4left4_0" arrivalPos="286.40" arrivalSpeed="13.00" duration="47.00" routeLength="576.73" waitingTime="0.00" waitingCount="0" stopTime="0.00" timeLoss="4.43" rerouteNo="0" devices="tripinfo_OD149_NV.0" vType="NV" speedFactor="1.00" vaporized=""/>
    <tripinfo id="OD290_NV.0" depart="4.00" departLane="top4E4_0" departPos="5.10" departSpeed="10.00" departDelay="1.51" arrival="58.00" arrivalLane="E4right4_2" arrivalPos="286.40" arrivalSpeed="13.09" duration="54.00" routeLength="592.21" waitingTime="4.00" waitingCount="1" stopTime="0.00" timeLoss="10.26" rerouteNo="0" devices="tripinfo_OD290_NV.0" vType="NV" speedFactor="1.00" vaporized=""/>
    <tripinfo id="OD186_NV.0" depart="5.00" departLane="top1B4_0" departPos="5.10" departSpeed="10.00" departDelay="0.79" arrival="76.00" arrivalLane="A4top0_0" arrivalPos="286.40" arrivalSpeed="13.44" duration="71.00" routeLength="858.56" waitingTime="0.00" waitingCount="0" stopTime="0.00" timeLoss="7.65" rerouteNo="0" devices="tripinfo_OD186_NV.0" vType="NV" speedFactor="1.00" vaporized=""/>
    <tripinfo id="OD307_RV.0" depart="9.00" departLane="bottom0A0_0" departPos="5.10" departSpeed="10.00" departDelay="3.39" arrival="81.00" arrivalLane="B0bottom1_0" arrivalPos="286.40" arrivalSpeed="12.52" duration="72.00" routeLength="858.56" waitingTime="0.00" waitingCount="0" stopTime="0.00" timeLoss="8.29" rerouteNo="0" devices="tripinfo_OD307_RV.0" vType="RV" speedFactor="1.00" vaporized=""/>
    <tripinfo id="OD251_RV.0" depart="10.00" departLane="left2A2_0" departPos="5.10" departSpeed="10.00" departDelay="0.17" arrival="81.00" arrivalLane="A1left1_0" arrivalPos="286.40" arrivalSpeed="12.96" duration="71.00" routeLength="858.56" waitingTime="0.00" waitingCount="0" stopTime="0.00" timeLoss="7.57" rerouteNo="0" devices="tripinfo_OD251_RV.0" vType="RV" speedFactor="1.00" vaporized=""/>
    <tripinfo id="OD379_RV.0" depart="6.00" departLane="bottom1B0_0" departPos="5.10" departSpeed="10.00" departDelay="0.58" arrival="86.00" arrivalLane="A0left0_1" arrivalPos="286.40" arrivalSpeed="13.02" duration="80.00" routeLength="892.21" waitingTime="3.00" waitingCount="1" stopTime="0.00" timeLoss="14.24" rerouteNo="0" devices="tripinfo_OD379_RV.0" vType="RV" speedFactor="1.00" vaporized=""/>
    <tripinfo id="OD149_NV.1" depart="40.00" departLane="top0A4_0" departPos="5.10" departSpeed="10.00" departDelay="0.33" arrival="87.00" arrivalLane="A4left4_0" arrivalPos="286.40" arrivalSpeed="13.47" duration="47.00" routeLength="576.73" waitingTime="0.00" waitingCount="0" stopTime="0.00" timeLoss="4.31" rerouteNo="0" devices="tripinfo_OD149_NV.1" vType="NV" speedFactor="1.00" vaporized=""/>
    <tripinfo id="OD49_RV.0" depart="20.00" departLane="right0E0_0" departPos="5.10" departSpeed="10.00" departDelay="0.19" arrival="91.00" arrivalLane="E1right1_0" arrivalPos="286.40" arrivalSpeed="13.79" duration="71.00" routeLength="858.56" waitingTime="0.00" waitingCount="0" stopTime="0.00" timeLoss="6.94" rerouteNo="0" devices="tripinfo_OD49_RV.0" vType="RV" speedFactor="1.00" vaporized=""/>
    <tripinfo id="OD243_NV.0" depart="10.00" departLane="left3A3_0" departPos="5.10" departSpeed="10.00" departDelay="2.64" arrival="92.00" arrivalLane="A4top0_1" arrivalPos="286.40" arrivalSpeed="13.79" duration="82.00" routeLength="892.21" waitingTime="7.00" waitingCount="1" stopTime="0.00" timeLoss="16.47" rerouteNo="0" devices="tripinfo_OD243_NV.0" vType="NV" speedFactor="1.00" vaporized=""/>
    <tripinfo id="OD374_NV.0" depart="22.00" departLane="bottom1B0_0" departPos="5.10" departSpeed="10.00" departDelay="0.16" arrival="93.00" arrivalLane="C0bottom2_0" arrivalPos="286.40" arrivalSpeed="13.00" duration="71.00" routeLength="858.56" waitingTime="0.00" waitingCount="0" stopTime="0.00" timeLoss="7.97" rerouteNo="0" devices="tripinfo_OD374_NV.0" vType="NV" speedFactor="1.00" vaporized=""/>
    <tripinfo id="OD235_NV.0" depart="23.00" departLane="left3A3_0" departPos="5.10" departSpeed="10.00" departDelay="0.67" arrival="93.00" arrivalLane="A2left2_0" arrivalPos="286.40" arrivalSpeed="13.19" duration="70.00" routeLength="858.56" waitingTime="0.00" waitingCount="0" stopTime="0.00" timeLoss="7.07" rerouteNo="0" devices="tripinfo_OD235_NV.0" vType="NV" speedFactor="1.00" vaporized=""/>
    <tripinfo id="OD189_NV.0" depart="8.00" departLane="top1B4_0" departPos="5.10" departSpeed="10.00" departDelay="0.02" arrival="95.00" arrivalLane="C4top2_2" arrivalPos="286.40" arrivalSpeed="13.43" duration="87.00" routeLength="889.52" waitingTime="8.00" waitingCount="2" stopTime="0.00" timeLoss="20.91" rerouteNo="0" devices="tripinfo_OD189_NV.0" vType="NV" speedFactor="1.00" vaporized=""/>
    <tripinfo id="OD20_NV.0" depart="2.00" departLane="top2C4_0" departPos="5.10" departSpeed="10.00" departDelay="0.73" arrival="97.00" arrivalLane="D4top3_2" arrivalPos="286.40" arrivalSpeed="12.81" duration="95.00" routeLength="889.52" waitingTime="17.00" waitingCount="2" stopTime="0.00" timeLoss="29.31" rerouteNo="0" devices="tripinfo_OD20_NV.0" vType="NV" speedFactor="1.00" vaporized=""/>
    <tripinfo id="OD189_RV.0" depart="13.00" departLane="top1B4_0" departPos="5.10" departSpeed="10.00" departDelay="0.53" arrival="97.00" arrivalLane="C4top2_2" arrivalPos="286.40" arrivalSpeed="13.20" duration="84.00" routeLength="889.52" waitingTime="5.00" waitingCount="1" stopTime="0.00" timeLoss="17.90" rerouteNo="0" devices="tripinfo_OD189_RV.0" vType="RV" speedFactor="1.00" vaporized=""/>
    <tripinfo id="OD307_NV.0" depart="26.00" departLane="bottom0A0_0" departPos="5.10" departSpeed="10.00" departDelay="0.53" arrival="97.00" arrivalLane="B0bottom1_0" arrivalPos="286.40" arrivalSpeed="12.62" duration="71.00" routeLength="858.56" waitingTime="0.00" waitingCount="0" stopTime="0.00" timeLoss="7.32" rerouteNo="0" devices="tripinfo_OD307_NV.0" vType="NV" speedFactor="1.00" vaporized=""/>
    <tripinfo id="OD244_RV.0" depart="27.00" departLane="left3A3_0" departPos="5.10" departSpeed="10.00" departDelay="0.79" arrival="105.00" arrivalLane="A4left4_2" arrivalPos="286.40" arrivalSpeed="13.00" duration="78.00" routeLength="889.52" waitingTime="1.00" waitingCount="1" stopTime="0.00" timeLoss="12.10" rerouteNo="0" devices="tripinfo_OD244_RV.0" vType="RV" speedFactor="1.00" vaporized=""/>
    <tripinfo id="OD74_RV.0" depart="35.00" departLane="left1A1_0" departPos="5.10" departSpeed="10.00" departDelay="1.05" arrival="105.00" arrivalLane="A0left0_0" arrivalPos="286.40" arrivalSpeed="13.71" duration="70.00" routeLength="858.56" waitingTime="0.00" waitingCount="0" stopTime="0.00" timeLoss="6.21" rerouteNo="0" devices="tripinfo_OD74_RV.0" vType="RV" speedFactor="1.00" vaporized=""/>
    <tripinfo id="OD303_NV.0" depart="2.00" departLane="top4E4_0" departPos="5.10" departSpeed="10.00" departDelay="0.04" arrival="110.00" arrivalLane="C4top2_0" arrivalPos="286.40" arrivalSpeed="13.74" duration="108.00" routeLength="1158.56" waitingTime="8.00" waitingCount="1" stopTime="0.00" timeLoss="22.23" rerouteNo="0" devices="tripinfo_OD303_NV.0" vType="NV" speedFactor="1.00" vaporized=""/>
    <tripinfo id="OD353_NV.0" depart="5.00" departLane="top3D4_0" departPos="5.10" departSpeed="10.00" departDelay="2.40" arrival="110.00" arrivalLane="E4top4_2" arrivalPos="286.40" arrivalSpeed="12.87" duration="105.00" routeLength="889.52" waitingTime="24.00" waitingCount="2" stopTime="0.00" timeLoss="39.46" rerouteNo="0" devices="tripinfo_OD353_NV.0" vType="NV" speedFactor="1.00" vaporized=""/>
    <tripinfo id="OD321_RV.0" depart="34.00" departLane="bottom0A0_0" departPos="5.10" departSpeed="10.00" departDelay="0.29" arrival="110.00" arrivalLane="A0left0_2" arrivalPos="286.40" arrivalSpeed="13.77" duration="76.00" routeLength="592.21" waitingTime="25.00" waitingCount="1" stopTime="0.00" timeLoss="32.01" rerouteNo="0" devices="tripinfo_OD321_RV.0" vType="RV" speedFactor="1.00" vaporized=""/>
    <tripinfo id="OD328_RV.0" depart="39.00" departLane="right3E3_0" departPos="5.10" departSpeed="10.00" departDelay="0.68" arrival="110.00" arrivalLane="E4right4_0" arrivalPos="286.40" arrivalSpeed="13.17" duration="71.00" routeLength="858.56" waitingTime="0.00" waitingCount="0" stopTime="0.00" timeLoss="7.67" rerouteNo="0" devices="tripinfo_OD328_RV.0" vType="RV" speedFactor="1.00" vaporized=""/>
    <tripinfo id="OD353_RV.0" depart="10.00" departLane="top3D4_0" departPos="5.10" departSpeed="10.00" departDelay="0.22" arrival="112.00" arrivalLane="E4top4_2" arrivalPos="286.40" arrivalSpeed="12.44" duration="102.00" routeLength="889.52" waitingTime="19.00" waitingCount="2" stopTime="0.00" timeLoss="36.45" rerouteNo="0" devices="tripinfo_OD353_RV.0" vType="RV" speedFactor="1.00" vaporized=""/>
    <tripinfo id="OD33_RV.0" depart="43.00" departLane="top2C4_0" departPos="5.10" departSpeed="10.00" departDelay="0.91" arrival="114.00" arrivalLane="B4top1_0" arrivalPos="286.40" arrivalSpeed="12.58" duration="71.00" routeLength="858.56" waitingTime="0.00" waitingCount="0" stopTime="0.00" timeLoss="6.49" rerouteNo="0" devices="tripinfo_OD33_RV.0" vType="RV" speedFactor="1.00" vaporized=""/>
    <tripinfo id="OD260_RV.0" depart="21.00" departLane="left2A2_0" departPos="5.10" departSpeed="10.00" departDelay="0.21" arrival="117.00" arrivalLane="A3left3_2" arrivalPos="286.40" arrivalSpeed="13.17" duration="96.00" routeLength="889.52" waitingTime="18.00" waitingCount="2" stopTime="0.00" timeLoss="30.15" rerouteNo="0" devices="tripinfo_OD260_RV.0" vType="RV" speedFactor="1.00" vaporized=""/>
    <tripinfo id="OD317_NV.0" depart="5.00" departLane="bottom0A0_0" departPos="5.10" departSpeed="10.00" departDelay="0.73" arrival="123.00" arrivalLane="C0bottom2_0" arrivalPos="286.40" arrivalSpeed="13.47" duration="118.00" routeLength="1158.56" waitingTime="18.00" waitingCount="1" stopTime="0.00" timeLoss="32.21" rerouteNo="0" devices="tripinfo_OD317_NV.0" vType="NV" speedFactor="1.00" vaporized=""/>
    <tripinfo id="OD45_RV.0" depart="6.00" departLane="right0E0_0" departPos="5.10" departSpeed="10.00" departDelay="0.70" arrival="123.00" arrivalLane="E2right2_0" arrivalPos="286.40" arrivalSpeed="12.78" duration="117.00" routeLength="1158.56" waitingTime="19.00" waitingCount="1" stopTime="0.00" timeLoss="32.14" rerouteNo="0" devices="tripinfo_OD45_RV.0" vType="RV" speedFactor="1.00" vaporized=""/>
    <tripinfo id="OD162_NV.0" depart="16.00" departLane="right2E2_0" departPos="5.10" departSpeed="10.00" departDelay="0.58" arrival="123.00" arrivalLane="E4top4_1" arrivalPos="286.40" arrivalSpeed="12.89" duration="107.00" routeLength="1176.73" waitingTime="4.00" waitingCount="1" stopTime="0.00" timeLoss="20.63" rerouteNo="0" devices="tripinfo_OD162_NV.0" vType="NV" speedFactor="1.00" vaporized=""/>
    <tripinfo id="OD367_NV.0" depart="10.00" departLane="bottom1B0_0" departPos="5.10" departSpeed="10.00" departDelay="0.53" arrival="124.00" arrivalLane="D0bottom3_0" arrivalPos="286.40" arrivalSpeed="13.45" duration="114.00" routeLength="1158.56" waitingTime="15.00" waitingCount="1" stopTime="0.00" timeLoss="28.81" rerouteNo="0" devices="tripinfo_OD367_NV.0" vType="NV" speedFactor="1.00" vaporized=""/>
    <tripinfo id="OD198_NV.0" depart="14.00" departLane="bottom4E0_0" departPos="5.10" departSpeed="10.00" departDelay="1.02" arrival="127.00" arrivalLane="E2right2_0" arrivalPos="286.40" arrivalSpeed="13.70" duration="113.00" routeLength="1176.73" waitingTime="11.00" waitingCount="1" stopTime="0.00" timeLoss="27.29" rerouteNo="0" devices="tripinfo_OD198_NV.0" vType="NV" speedFactor="1.00" vaporized=""/>
    <tripinfo id="OD122_RV.0" depart="21.00" departLane="right1E1_0" departPos="5.10" departSpeed="10.00" departDelay="0.10" arrival="127.00" arrivalLane="E3right3_0" arrivalPos="286.40" arrivalSpeed="13.63" duration="106.00" routeLength="1158.56" waitingTime="6.00" waitingCount="1" stopTime="0.00" timeLoss="20.70" rerouteNo="0" devices="tripinfo_OD122_RV.0" vType="RV" speedFactor="1.00" vaporized=""/>
    <tripinfo id="OD374_RV.0" depart="56.00" departLane="bottom1B0_0" departPos="5.10" departSpeed="10.00" departDelay="0.61" arrival="127.00" arrivalLane="C0bottom2_0" arrivalPos="286.40" arrivalSpeed="12.53" duration="71.00" routeLength="858.56" waitingTime="0.00" waitingCount="0" stopTime="0.00" timeLoss="7.66" rerouteNo="0" devices="tripinfo_OD374_RV.0" vType="RV" speedFactor="1.00" vaporized=""/>
    <tripinfo id="OD187_NV.0" depart="24.00" departLane="top1B4_0" departPos="5.10" departSpeed="10.00" departDelay="0.41" arrival="131.00" arrivalLane="A4left4_1" arrivalPos="286.40" arrivalSpeed="13.21" duration="107.00" routeLength="876.73" waitingTime="30.00" waitingCount="1" stopTime="0.00" timeLoss="42.80" rerouteNo="0" devices="tripinfo_OD187_NV.0" vType="NV" speedFactor="1.00" vaporized=""/>
    <tripinfo id="OD251_NV.0" depart="61.00" departLane="left2A2_0" departPos="5.10" departSpeed="10.00" departDelay="0.14" arrival="131.00" arrivalLane="A1left1_0" arrivalPos="286.40" arrivalSpeed="13.28" duration="70.00" routeLength="858.56" waitingTime="0.00" waitingCount="0" stopTime="0.00" timeLoss="6.33" rerouteNo="0" devices="tripinfo_OD251_NV.0" vType="NV" speedFactor="1.00" vaporized=""/>
    <tripinfo id="OD374_NV.1" depart="60.00" departLane="bottom1B0_0" departPos="5.10" departSpeed="10.00" departDelay="0.36" arrival="132.00" arrivalLane="C0bottom2_0" arrivalPos="286.40" arrivalSpeed="13.48" duration="72.00" routeLength="858.56" waitingTime="0.00" waitingCount="0" stopTime="0.00" timeLoss="8.62" rerouteNo="0" devices="tripinfo_OD374_NV.1" vType="NV" speedFactor="1.00" vaporized=""/>
    <tripinfo id="OD187_RV.0" depart="43.00" departLane="top1B4_0" departPos="5.10" departSpeed="10.00" departDelay="0.06" arrival="133.00" arrivalLane="A4left4_1" arrivalPos="286.40" arrivalSpeed="12.49" duration="90.00" routeLength="876.73" waitingTime="14.00" waitingCount="1" stopTime="0.00" timeLoss="25.75" rerouteNo="0" devices="tripinfo_OD187_RV.0" vType="RV" speedFactor="1.00" vaporized=""/>
    <tripinfo id="OD226_RV.0" depart="21.00" departLane="bottom2C0_0" departPos="5.10" departSpeed="10.00" departDelay="0.90" arrival="135.00" arrivalLane="A0left0_1" arrivalPos="286.40" arrivalSpeed="13.35" duration="114.00" routeLength="1192.21" waitingTime="10.00" waitingCount="2" stopTime="0.00" timeLoss="27.68" rerouteNo="0" devices="tripinfo_OD226_RV.0" vType="RV" speedFactor="1.00" vaporized=""/>
    <tripinfo id="OD347_RV.0" depart="3.00" departLane="top3D4_0" departPos="5.10" departSpeed="10.00" departDelay="0.70" arrival="136.00" arrivalLane="E4right4_1" arrivalPos="286.40" arrivalSpeed="13.15" duration="133.00" routeLength="892.21" waitingTime="55.00" waitingCount="2" stopTime="0.00" timeLoss="67.38" rerouteNo="0" devices="tripinfo_OD347_RV.0" vType="RV" speedFactor="1.00" vaporized=""/>
    <tripinfo id="OD325_NV.0" depart="26.00" departLane="right3E3_0" departPos="5.10" departSpeed="10.00" departDelay="0.51" arrival="136.00" arrivalLane="D4top3_1" arrivalPos="286.40" arrivalSpeed="12.84" duration="110.00" routeLength="1176.73" waitingTime="13.00" waitingCount="1" stopTime="0.00" timeLoss="24.25" rerouteNo="0" devices="tripinfo_OD325_NV.0" vType="NV" speedFactor="1.00" vaporized=""/>
    <tripinfo id="OD152_NV.0" depart="11.00" departLane="right2E2_0" departPos="5.10" departSpeed="10.00" departDelay="0.34" arrival="138.00" arrivalLane="E0right0_2" arrivalPos="286.40" arrivalSpeed="13.41" duration="127.00" routeLength="1189.52" waitingTime="26.00" waitingCount="2" stopTime="0.00" timeLoss="39.39" rerouteNo="0" devices="tripinfo_OD152_NV.0" vType="NV" speedFactor="1.00" vaporized=""/>
    <tripinfo id="OD201_RV.0" depart="44.00" departLane="bottom4E0_0" departPos="5.10" departSpeed="10.00" departDelay="0.45" arrival="138.00" arrivalLane="E1right1_0" arrivalPos="286.40" arrivalSpeed="13.13" duration="94.00" routeLength="876.73" waitingTime="18.00" waitingCount="1" stopTime="0.00" timeLoss="29.53" rerouteNo="0" devices="tripinfo_OD201_RV.0" vType="RV" speedFactor="1.00" vaporized=""/>
    <tripinfo id="OD245_NV.0" depart="2.00" departLane="left3A3_0" departPos="5.10" departSpeed="10.00" departDelay="0.05" arrival="139.00" arrivalLane="A0left0_0" arrivalPos="286.40" arrivalSpeed="13.50" duration="137.00" routeLength="1458.56" waitingTime="16.00" waitingCount="1" stopTime="0.00" timeLoss="29.85" rerouteNo="0" devices="tripinfo_OD245_NV.0" vType="NV" speedFactor="1.00" vaporized=""/>
    <tripinfo id="OD250_RV.0" depart="15.00" departLane="left2A2_0" departPos="5.10" departSpeed="10.00" departDelay="2.20" arrival="140.00" arrivalLane="B0bottom1_1" arrivalPos="286.40" arrivalSpeed="13.42" duration="125.00" routeLength="1476.73" waitingTime="1.00" waitingCount="1" stopTime="0.00" timeLoss="18.20" rerouteNo="0" devices="tripinfo_OD250_RV.0" vType="RV" speedFactor="1.00" vaporized=""/>
    <tripinfo id="OD114_RV.0" depart="38.00" departLane="right1E1_0" departPos="5.10" departSpeed="10.00" departDelay="0.91" arrival="140.00" arrivalLane="E0right0_2" arrivalPos="286.40" arrivalSpeed="13.70" duration="102.00" routeLength="889.52" waitingTime="22.00" waitingCount="1" stopTime="0.00" timeLoss="36.11" rerouteNo="0" devices="tripinfo_OD114_RV.0" vType="RV" speedFactor="1.00" vaporized=""/>
    <tripinfo id="OD69_NV.0" depart="20.00" departLane="left1A1_0" departPos="5.10" departSpeed="10.00" departDelay="0.38" arrival="141.00" arrivalLane="C0bottom2_0" arrivalPos="286.40" arrivalSpeed="12.58" duration="121.00" routeLength="1455.87" waitingTime="0.00" waitingCount="0" stopTime="0.00" timeLoss="14.20" rerouteNo="0" devices="tripinfo_OD69_NV.0" vType="NV" speedFactor="1.00" vaporized=""/>
    <tripinfo id="OD121_RV.0" depart="70.00" departLane="right1E1_0" departPos="5.10" departSpeed="10.00" departDelay="0.64" arrival="141.00" arrivalLane="E2right2_0" arrivalPos="286.40" arrivalSpeed="13.60" duration="71.00" routeLength="858.56" waitingTime="0.00" waitingCount="0" stopTime="0.00" timeLoss="7.41" rerouteNo="0" devices="tripinfo_OD121_RV.0" vType="RV" speedFactor="1.00" vaporized=""/>
    <tripinfo id="OD215_RV.0" depart="71.00" departLane="bottom2C0_0" departPos="5.10" departSpeed="10.00" departDelay="0.90" arrival="141.00" arrivalLane="D0bottom3_0" arrivalPos="286.40" arrivalSpeed="12.98" duration="70.00" routeLength="858.56" waitingTime="0.00" waitingCount="0" stopTime="0.00" timeLoss="6.42" rerouteNo="0" devices="tripinfo_OD215_RV.0" vType="RV" speedFactor="1.00" vaporized=""/>
    <tripinfo id="OD307_NV.1" depart="71.00" departLane="bottom0A0_0" departPos="5.10" departSpeed="10.00" departDelay="0.19" arrival="142.00" arrivalLane="B0bottom1_0" arrivalPos="286.40" arrivalSpeed="12.87" duration="71.00" routeLength="858.56" waitingTime="0.00" waitingCount="0" stopTime="0.00" timeLoss="6.96" rerouteNo="0" devices="tripinfo_OD307_NV.1" vType="NV" speedFactor="1.00" vaporized=""/>
    <tripinfo id="OD243_NV.1" depart="45.00" departLane="left3A3_0" departPos="5.10" departSpeed="10.00" departDelay="0.91" arrival="144.00" arrivalLane="A4top0_1" arrivalPos="286.40" arrivalSpeed="13.57" duration="99.00" routeLength="892.21" waitingTime="19.00" waitingCount="2" stopTime="0.00" timeLoss="33.56" rerouteNo="0" devices="tripinfo_OD243_NV.1" vType="NV" speedFactor="1.00" vaporized=""/>
    <tripinfo id="OD243_NV.2" depart="51.00" departLane="left3A3_0" departPos="5.10" departSpeed="10.00" departDelay="0.63" arrival="146.00" arrivalLane="A4top0_1" arrivalPos="286.40" arrivalSpeed="13.74" duration="95.00" routeLength="892.21" waitingTime="14.00" waitingCount="2" stopTime="0.00" timeLoss="29.42" rerouteNo="0" devices="tripinfo_OD243_NV.2" vType="NV" speedFactor="1.00" vaporized=""/>
    <tripinfo id="OD3_NV.0" depart="8.00" departLane="left0A0_0" departPos="5.10" departSpeed="10.00" departDelay="0.36" arrival="147.00" arrivalLane="A1left1_2" arrivalPos="286.40" arrivalSpeed="13.26" duration="139.00" routeLength="889.52" waitingTime="59.00" waitingCount="2" stopTime="0.00" timeLoss="72.84" rerouteNo="0" devices="tripinfo_OD3_NV.0" vType="NV" speedFactor="1.00" vaporized=""/>
    <tripinfo id="OD34_RV.0" depart="10.00" departLane="top2C4_0" departPos="5.10" departSpeed="10.00" departDelay="0.93" arrival="147.00" arrivalLane="A4top0_0" arrivalPos="286.40" arrivalSpeed="12.94" duration="137.00" routeLength="1158.56" waitingTime="39.00" waitingCount="1" stopTime="0.00" timeLoss="51.28" rerouteNo="0" devices="tripinfo_OD34_RV.0" vType="RV" speedFactor="1.00" vaporized=""/>
    <tripinfo id="OD351_NV.0" depart="31.00" departLane="top3D4_0" departPos="5.10" departSpeed="10.00" departDelay="0.70" arrival="147.00" arrivalLane="E3right3_2" arrivalPos="286.40" arrivalSpeed="13.30" duration="116.00" routeLength="1171.35" waitingTime="15.00" waitingCount="1" stopTime="0.00" timeLoss="28.96" rerouteNo="0" devices="tripinfo_OD351_NV.0" vType="NV" speedFactor="1.00" vaporized=""/>
    <tripinfo id="OD215_NV.0" depart="76.00" departLane="bottom2C0_0" departPos="5.10" departSpeed="10.00" departDelay="0.26" arrival="147.00" arrivalLane="D0bottom3_0" arrivalPos="286.40" arrivalSpeed="13.53" duration="71.00" routeLength="858.56" waitingTime="0.00" waitingCount="0" stopTime="0.00" timeLoss="7.69" rerouteNo="0" devices="tripinfo_OD215_NV.0" vType="NV" speedFactor="1.00" vaporized=""/>
    <tripinfo id="OD365_RV.0" depart="3.00" departLane="bottom1B0_0" departPos="5.10" departSpeed="10.00" departDelay="0.34" arrival="149.00" arrivalLane="A1left1_2" arrivalPos="286.40" arrivalSpeed="12.49" duration="146.00" routeLength="1171.35" waitingTime="43.00" waitingCount="2" stopTime="0.00" timeLoss="58.99" rerouteNo="0" devices="tripinfo_OD365_RV.0" vType="RV" speedFactor="1.00" vaporized=""/>
    <tripinfo id="OD20_NV.1" depart="40.00" departLane="top2C4_0" departPos="5.10" departSpeed="10.00" departDelay="0.68" arrival="149.00" arrivalLane="D4top3_2" arrivalPos="286.40" arrivalSpeed="12.54" duration="109.00" routeLength="889.52" waitingTime="28.00" waitingCount="2" stopTime="0.00" timeLoss="43.91" rerouteNo="0" devices="tripinfo_OD20_NV.1" vType="NV" speedFactor="1.00" vaporized=""/>
    <tripinfo id="OD147_RV.0" depart="48.00" departLane="top0A4_0" departPos="5.10" departSpeed="10.00" departDelay="0.66" arrival="149.00" arrivalLane="B4top1_2" arrivalPos="286.40" arrivalSpeed="13.73" duration="101.00" routeLength="889.52" waitingTime="21.00" waitingCount="2" stopTime="0.00" timeLoss="35.28" rerouteNo="0" devices="tripinfo_OD147_RV.0" vType="RV" speedFactor="1.00" vaporized=""/>
    <tripinfo id="OD275_RV.0" depart="64.00" departLane="right4E4_0" departPos="5.10" departSpeed="10.00" departDelay="0.74" arrival="149.00" arrivalLane="E3right3_2" arrivalPos="286.40" arrivalSpeed="13.74" duration="85.00" routeLength="889.52" waitingTime="8.00" waitingCount="1" stopTime="0.00" timeLoss="19.20" rerouteNo="0" devices="tripinfo_OD275_RV.0" vType="RV" speedFactor="1.00" vaporized=""/>
    <tripinfo id="OD49_NV.0" depart="78.00" departLane="right0E0_0" departPos="5.10" departSpeed="10.00" departDelay="0.36" arrival="149.00" arrivalLane="E1right1_0" arrivalPos="286.40" arrivalSpeed="13.87" duration="71.00" routeLength="858.56" waitingTime="0.00" waitingCount="0" stopTime="0.00" timeLoss="7.06" rerouteNo="0" devices="tripinfo_OD49_NV.0" vType="NV" speedFactor="1.00" vaporized=""/>
    <tripinfo id="OD79_RV.0" depart="3.00" departLane="bottom3D0_0" departPos="5.10" departSpeed="10.00" departDelay="0.99" arrival="150.00" arrivalLane="B0bottom1_2" arrivalPos="286.40" arrivalSpeed="13.72" duration="147.00" routeLength="1189.52" waitingTime="42.00" waitingCount="3" stopTime="0.00" timeLoss="59.87" rerouteNo="0" devices="tripinfo_OD79_RV.0" vType="RV" speedFactor="1.00" vaporized=""/>
    <tripinfo id="OD173_RV.0" depart="19.00" departLane="top1B4_0" departPos="5.10" departSpeed="10.00" departDelay="0.66" arrival="151.00" arrivalLane="D4top3_2" arrivalPos="286.40" arrivalSpeed="12.54" duration="132.00" routeLength="1189.52" waitingTime="27.00" waitingCount="1" stopTime="0.00" timeLoss="44.91" rerouteNo="0" devices="tripinfo_OD173_RV.0" vType="RV" speedFactor="1.00" vaporized=""/>
    <tripinfo id="OD308_RV.0" depart="31.00" departLane="bottom0A0_0" departPos="5.10" departSpeed="10.00" departDelay="0.45" arrival="151.00" arrivalLane="A1left1_2" arrivalPos="286.40" arrivalSpeed="12.71" duration="120.00" routeLength="892.21" waitingTime="41.00" waitingCount="2" stopTime="0.00" timeLoss="54.60" rerouteNo="0" devices="tripinfo_OD308_RV.0" vType="RV" speedFactor="1.00" vaporized=""/>
    <tripinfo id="OD76_NV.0" depart="65.00" departLane="bottom3D0_0" departPos="5.10" departSpeed="10.00" departDelay="0.41" arrival="151.00" arrivalLane="E0right0_1" arrivalPos="286.40" arrivalSpeed="13.67" duration="86.00" routeLength="876.73" waitingTime="11.00" waitingCount="1" stopTime="0.00" timeLoss="21.92" rerouteNo="0" devices="tripinfo_OD76_NV.0" vType="NV" speedFactor="1.00" vaporized=""/>
    <tripinfo id="OD119_NV.0" depart="26.00" departLane="right1E1_0" departPos="5.10" departSpeed="10.00" departDelay="0.88" arrival="152.00" arrivalLane="E4right4_0" arrivalPos="286.40" arrivalSpeed="12.87" duration="126.00" routeLength="1458.56" waitingTime="5.00" waitingCount="1" stopTime="0.00" timeLoss="19.32" rerouteNo="0" devices="tripinfo_OD119_NV.0" vType="NV" speedFactor="1.00" vaporized=""/>
    <tripinfo id="OD294_NV.0" depart="68.00" departLane="top4E4_0" departPos="5.10" departSpeed="10.00" departDelay="0.21" arrival="152.00" arrivalLane="E3right3_2" arrivalPos="286.40" arrivalSpeed="12.90" duration="84.00" routeLength="892.21" waitingTime="7.00" waitingCount="1" stopTime="0.00" timeLoss="18.88" rerouteNo="0" devices="tripinfo_OD294_NV.0" vType="NV" speedFactor="1.00" vaporized=""/>
    <tripinfo id="OD173_RV.1" depart="22.00" departLane="top1B4_0" departPos="5.10" departSpeed="10.00" departDelay="2.67" arrival="153.00" arrivalLane="D4top3_2" arrivalPos="286.40" arrivalSpeed="12.99" duration="131.00" routeLength="1189.52" waitingTime="21.00" waitingCount="3" stopTime="0.00" timeLoss="43.85" rerouteNo="0" devices="tripinfo_OD173_RV.1" vType="RV" speedFactor="1.00" vaporized=""/>
    <tripinfo id="OD308_NV.0" depart="57.00" departLane="bottom0A0_0" departPos="5.10" departSpeed="10.00" departDelay="0.14" arrival="153.00" arrivalLane="A1left1_2" arrivalPos="286.40" arrivalSpeed="13.35" duration="96.00" routeLength="892.21" waitingTime="20.00" waitingCount="1" stopTime="0.00" timeLoss="30.27" rerouteNo="0" devices="tripinfo_OD308_NV.0" vType="NV" speedFactor="1.00" vaporized=""/>
    <tripinfo id="OD293_RV.0" depart="27.00" departLane="top4E4_0" departPos="5.10" departSpeed="10.00" departDelay="0.58" arrival="154.00" arrivalLane="E2right2_2" arrivalPos="286.40" arrivalSpeed="13.36" duration="127.00" routeLength="1192.21" waitingTime="28.00" waitingCount="1" stopTime="0.00" timeLoss="40.01" rerouteNo="0" devices="tripinfo_OD293_RV.0" vType="RV" speedFactor="1.00" vaporized=""/>
    <tripinfo id="OD33_RV.1" depart="84.00" departLane="top2C4_0" departPos="5.10" departSpeed="10.00" departDelay="0.44" arrival="154.00" arrivalLane="B4top1_0" arrivalPos="286.40" arrivalSpeed="13.71" duration="70.00" routeLength="858.56" waitingTime="0.00" waitingCount="0" stopTime="0.00" timeLoss="7.20" rerouteNo="0" devices="tripinfo_OD33_RV.1" vType="RV" speedFactor="1.00" vaporized=""/>
    <tripinfo id="OD3_NV.1" depart="56.00" departLane="left0A0_0" departPos="5.10" departSpeed="10.00" departDelay="0.54" arrival="155.00" arrivalLane="A1left1_2" arrivalPos="286.40" arrivalSpeed="12.92" duration="99.00" routeLength="889.52" waitingTime="17.00" waitingCount="1" stopTime="0.00" timeLoss="32.93" rerouteNo="0" devices="tripinfo_OD3_NV.1" vType="NV" speedFactor="1.00" vaporized=""/>
    <tripinfo id="OD263_RV.0" depart="6.00" departLane="left2A2_0" departPos="5.10" departSpeed="10.00" departDelay="0.30" arrival="156.00" arrivalLane="A4left4_2" arrivalPos="286.40" arrivalSpeed="12.70" duration="150.00" routeLength="1189.52" waitingTime="50.00" waitingCount="2" stopTime="0.00" timeLoss="63.03" rerouteNo="0" devices="tripinfo_OD263_RV.0" vType="RV" speedFactor="1.00" vaporized=""/>
    <tripinfo id="OD245_RV.0" depart="8.00" departLane="left3A3_0" departPos="5.10" departSpeed="10.00" departDelay="0.65" arrival="157.00" arrivalLane="A0left0_0" arrivalPos="286.40" arrivalSpeed="12.40" duration="149.00" routeLength="1458.56" waitingTime="25.00" waitingCount="2" stopTime="0.00" timeLoss="41.94" rerouteNo="0" devices="tripinfo_OD245_RV.0" vType="RV" speedFactor="1.00" vaporized=""/>
    <tripinfo id="OD232_RV.0" depart="59.00" departLane="left3A3_0" departPos="5.10" departSpeed="10.00" departDelay="0.49" arrival="157.00" arrivalLane="A1left1_0" arrivalPos="286.40" arrivalSpeed="13.43" duration="98.00" routeLength="1158.56" waitingTime="0.00" waitingCount="0" stopTime="0.00" timeLoss="13.54" rerouteNo="0" devices="tripinfo_OD232_RV.0" vType="RV" speedFactor="1.00" vaporized=""/>